# vtk DataFile Version 3.0
vtk output
ASCII
DATASET POLYDATA
POINTS 1482 float
121 126 41.0238 121 125.024 42 120.024 126 42 
122 126 41.0238 122 125.024 42 122.976 126 42 
121 127 41.0238 120.024 127 42 122 127 41.0238 
122.976 127 42 121 128 41.0238 120.024 128 42 
122 128 41.0238 122.976 128 42 121 129 41.0238 
120.024 129 42 121.976 129 42 122 128.976 42 
121 129.976 42 120 122 42.0238 120 121.024 43 
119.024 122 43 120.976 122 43 120 123 42.0238 
119.024 123 43 121 122.024 43 121 123 42.0238 
121.976 123 43 120 123.976 43 121 123.976 43 
122 123.024 43 121.024 124 43 122 124 42.0238 
122.976 124 43 120 125 42.0238 120 124.024 43 
119.024 125 43 121 125 42.0238 121 124.024 43 
122 125 42.0238 123 124.024 43 123 125 42.0238 
123.976 125 43 120 126 42.0238 119.024 126 43 
123 125.976 43 122.976 126 43 120 127 42.0238 
119.024 127 43 122.976 127 43 120 128 42.0238 
119.024 128 43 122.976 128 43 118 129 42.0238 
118 128.024 43 117.024 129 43 119 129 42.0238 
119 128.024 43 120 129 42.0238 121.976 129 43 
122 128.976 43 118 130 42.0238 117.024 130 43 
118.976 130 43 119 129.976 43 120 129.976 43 
121 129.976 43 118 130.976 43 119 122 43.0238 
119 121.024 44 118.024 122 44 120 121.024 44 
121 122 43.0238 121 121.024 44 122 122 43.0238 
122 121.024 44 122.976 122 44 118 123 43.0238 
118 122.024 44 117.024 123 44 119 123 43.0238 
122 123 43.0238 122.976 123 44 115 124 43.0238 
115 123.024 44 114.024 124 44 116 124 43.0238 
116 123.024 44 117 124 43.0238 117 123.024 44 
118 124 43.0238 119 124 43.0238 120 124 43.0238 
121 124 43.0238 123 124 43.0238 123 123.024 44 
124 124 43.0238 124 123.024 44 124.976 124 44 
115 125 43.0238 114.024 125 44 116 125 43.0238 
117 125 43.0238 118 125 43.0238 119 125 43.0238 
124 125 43.0238 124.976 125 44 115 126 43.0238 
114.024 126 44 116 126 43.0238 117 126 43.0238 
118 126 43.0238 119 126 43.0238 123 126 43.0238 
124 126 43.0238 124.976 126 44 115 127 43.0238 
114.024 127 44 116 127 43.0238 117 127 43.0238 
118 127 43.0238 119 127 43.0238 123 127 43.0238 
123.976 127 44 124 126.976 44 115 128 43.0238 
114.024 128 44 116 128 43.0238 117 128 43.0238 
118 128 43.0238 119 128 43.0238 122.976 128 44 
123 127.976 44 115 129 43.0238 114.024 129 44 
116 129 43.0238 117 129 43.0238 121.976 129 44 
122 128.976 44 115 130 43.0238 114.024 130 44 
116 130 43.0238 117 130 43.0238 119 130 43.0238 
120 130 43.0238 120.976 130 44 121 129.976 44 
115 131 43.0238 114.024 131 44 116 131 43.0238 
117 131 43.0238 118 131 43.0238 119 131 43.0238 
119.976 131 44 120 130.976 44 115 131.976 44 
116 131.976 44 117 131.976 44 118 131.976 44 
119 131.976 44 119 121.024 45 118.024 122 45 
120 121.024 45 121 121.024 45 122 122 44.9762 
121.976 122 45 118 122.024 45 117.024 123 45 
122 122.024 45 122.976 123 45 115 123.024 45 
114.024 124 45 116 123.024 45 117 123.024 45 
123 123.024 45 124 123.024 45 124.976 124 45 
114.024 125 45 124.976 125 45 114.024 126 45 
124.976 126 45 114.024 127 45 124 127 44.0238 
124.976 127 45 114.024 128 45 122.976 128 45 
123 127.976 45 124 127.976 45 114.024 129 45 
122 129 44.0238 122.976 129 45 114.024 130 45 
120.976 130 45 121 129.976 45 122 129.976 45 
115 130.976 45 115 131 44.9762 116 130.976 45 
116 131 44.9762 117 130.976 45 117 131 44.9762 
118 130.976 45 118 131 44.9762 118.024 131 45 
120 131 44.0238 120.976 131 45 119 131.976 45 
120 131.976 45 119 122 45.9762 120 122 45.9762 
121 122 45.9762 118 123 45.9762 119 123 45.9762 
119.024 123 46 120 122.024 46 121 123 45.9762 
120.976 123 46 122 123 45.9762 115 124 45.9762 
116 124 45.9762 116.024 124 46 117 123.024 46 
118 123.024 46 119 123.024 46 121 123.024 46 
122 123.024 46 123 123.024 46 124 123.024 46 
124.976 124 46 115 125 45.9762 115.024 125 46 
116 124.024 46 124.976 125 46 115 125.024 46 
114.024 126 46 125 125.024 46 125 126 45.0238 
126 126 45.0238 126 125.024 46 126.976 126 46 
114.024 127 46 125 127 45.0238 126 127 45.0238 
126.976 127 46 114.024 128 46 123 128 45.0238 
124 128 45.0238 125 128 45.0238 126 128 45.0238 
126.976 128 46 114.024 129 46 123 129 45.0238 
124 129 45.0238 125 129 45.0238 125.976 129 46 
126 128.976 46 115 129.976 46 115 130 45.9762 
116 129.976 46 116 130 45.9762 117 129.976 46 
117 130 45.9762 118 129.976 46 118 130 45.9762 
118.024 130 46 121 130 45.0238 122 130 45.0238 
123 130 45.0238 124 130 45.0238 124.976 130 46 
125 129.976 46 118.024 131 46 121 131 45.0238 
122 131 45.0238 123 131 45.0238 123.976 131 46 
124 130.976 46 119 131.976 46 120 131.976 46 
121 131.976 46 122 131.976 46 123 131.976 46 
120 122.024 47 119.024 123 47 121 123 46.0238 
121 122.024 47 122 123 46.0238 122 122.024 47 
123 123 46.0238 123 122.024 47 123.976 123 47 
117 123.024 47 116.024 124 47 118 123.024 47 
119 123.024 47 124 123.024 47 124.976 124 47 
116 124.024 47 115.024 125 47 124.976 125 47 
114 126 46.0238 114 125.024 47 113.024 126 47 
115 125.024 47 125 125.024 47 126 125.024 47 
126.976 126 47 114 127 46.0238 113.024 127 47 
126.976 127 47 114 128 46.0238 113.024 128 47 
126.976 128 47 114 128.976 47 114.024 129 47 
125.976 129 47 126 128.976 47 115 129.976 47 
116 129.976 47 117 129.976 47 118 129.976 47 
118.024 130 47 124 130 46.9762 123.976 130 47 
124 129.976 47 125 129.976 47 119 130.976 47 
119 131 46.9762 120 130.976 47 120 131 46.9762 
121 130.976 47 121 131 46.9762 122 130.976 47 
122 131 46.9762 123 130.976 47 123 131 46.9762 
120 123 47.9762 121 123 47.9762 122 123 47.9762 
123 123 47.9762 117 123.024 48 116.024 124 48 
118 123.024 48 119 123.024 48 120 123.024 48 
121 123.024 48 122 123.024 48 123 123.024 48 
124 123.024 48 124.976 124 48 116 124.024 48 
115.024 125 48 124.976 125 48 113 126 47.0238 
113 125.024 48 112.024 126 48 114 125.024 48 
115 125.024 48 125 125.024 48 126 125.024 48 
126.976 126 48 113 127 47.0238 112.024 127 48 
126.976 127 48 113 128 47.0238 112.024 128 48 
126.976 128 48 113 129 47.0238 112.024 129 48 
114 129 47.0238 125.976 129 48 126 128.976 48 
113 129.976 48 114 129.976 48 115 129.976 48 
116 129.976 48 117 129.976 48 118 129.976 48 
119 129.976 48 119 130 47.9762 120 129.976 48 
120 130 47.9762 121 129.976 48 121 130 47.9762 
122 129.976 48 122 130 47.9762 123 129.976 48 
123 130 47.9762 124 129.976 48 125 129.976 48 
116 124 48.0238 116 123.024 49 115.024 124 49 
117 123.024 49 118 123.024 49 119 123.024 49 
120 123.024 49 121 123.024 49 122 123.024 49 
123 123.024 49 124 123.024 49 124.976 124 49 
113 125 48.0238 113 124.024 49 112.024 125 49 
114 125 48.0238 114 124.024 49 115 125 48.0238 
115 124.024 49 124.976 125 49 112.024 126 49 
125 125.024 49 126 126 48.9762 125.976 126 49 
112.024 127 49 126 127 48.9762 125.976 127 49 
112.024 128 49 126 128 48.9762 125.976 128 49 
112.024 129 49 124 129 48.9762 123.976 129 49 
124 128.976 49 125 128.976 49 125 129 48.9762 
113 129.976 49 114 129.976 49 115 129.976 49 
116 129.976 49 117 129.976 49 118 129.976 49 
119 129.976 49 120 129.976 49 121 129.976 49 
122 129.976 49 123 129.976 49 113 124 49.0238 
113 123.024 50 112.024 124 50 114 124 49.0238 
114 123.024 50 115 124 49.0238 115 123.024 50 
116 123.024 50 117 123.024 50 118 123.024 50 
119 123.024 50 120 123.024 50 121 123.024 50 
122 123.024 50 123 123.024 50 124 123.024 50 
124.976 124 50 112 125 49.0238 112 124.024 50 
111.024 125 50 124.976 125 50 112 125.976 50 
112.024 126 50 125 126 49.9762 124.976 126 50 
112.024 127 50 125 127 49.9762 124.976 127 50 
112.024 128 50 125 128 49.9762 124.976 128 50 
112.024 129 50 123.976 129 50 124 128.976 50 
113 129.976 50 114 129.976 50 115 129.976 50 
116 129.976 50 117 129.976 50 118 129.976 50 
119 129.976 50 120 129.976 50 121 129.976 50 
122 129.976 50 123 129.976 50 116 123 50.0238 
116 122.024 51 115.024 123 51 117 123 50.0238 
117 122.024 51 118 123 50.0238 118 122.024 51 
119 123 50.0238 119 122.024 51 120 123 50.0238 
120 122.024 51 121 123 50.0238 121 122.024 51 
122 123 50.0238 122 122.024 51 122.976 123 51 
113 123.024 51 112.024 124 51 114 123.024 51 
115 123.024 51 123 123.024 51 124 124 50.9762 
123.976 124 51 112 124.024 51 111.024 125 51 
124 125 50.9762 123.976 125 51 112 126 50.0238 
111.024 126 51 124 125.024 51 124.976 126 51 
112 127 50.0238 111.024 127 51 124.976 127 51 
112 128 50.0238 111.024 128 51 124.976 128 51 
112 128.976 51 112.024 129 51 124 129 50.0238 
124.976 129 51 113 129.976 51 114 130 50.0238 
113.024 130 51 114.976 130 51 115 129.976 51 
116 129.976 51 117 129.976 51 118 129.976 51 
119 129.976 51 120 129.976 51 121 129.976 51 
122 129.976 51 123 129.976 51 124 129.976 51 
114 130.976 51 117 122 51.0238 117 121.024 52 
116.024 122 52 118 122 51.0238 118 121.024 52 
119 122 51.0238 119 121.024 52 120 122 51.0238 
120 121.024 52 121 122 51.0238 121 121.024 52 
122 122 51.0238 122 121.024 52 122.976 122 52 
116 122.024 52 115.024 123 52 122.976 123 52 
113 123.024 52 112.024 124 52 114 123.024 52 
115 123.024 52 123 124 51.9762 122.976 124 52 
112 124.024 52 111.024 125 52 123 125 51.9762 
122.976 125 52 111 126 51.0238 111 125.024 52 
110.024 126 52 123 125.024 52 124 125.024 52 
124.976 126 52 111 127 51.0238 110.024 127 52 
124.976 127 52 111 128 51.0238 110.024 128 52 
124.976 128 52 111 129 51.0238 110.024 129 52 
112 129 51.0238 124.976 129 52 111 129.976 52 
112 129.976 52 113 130 51.0238 112.024 130 52 
115 130 51.0238 116 130 51.0238 117 130 51.0238 
118 130 51.0238 119 130 51.0238 120 130 51.0238 
121 130 51.0238 122 130 51.0238 123 130 51.0238 
124 130 51.0238 124.976 130 52 113 131 51.0238 
112.024 131 52 114 131 51.0238 115 131 51.0238 
116 131 51.0238 117 131 51.0238 118 131 51.0238 
119 131 51.0238 120 131 51.0238 121 131 51.0238 
122 131 51.0238 123 131 51.0238 123.976 131 52 
124 130.976 52 113 131.976 52 114 131.976 52 
115 131.976 52 116 131.976 52 117 131.976 52 
118 131.976 52 119 131.976 52 120 131.976 52 
121 131.976 52 122 131.976 52 123 131.976 52 
116 122 52.0238 116 121.024 53 115.024 122 53 
117 121.024 53 118 121.024 53 119 121.024 53 
120 121.024 53 121 121.024 53 122 122 52.9762 
121.976 122 53 112 123 52.0238 112 122.024 53 
[...]
POINT_DATA 1482
SCALARS scalars float
LOOKUP_TABLE default
1 1 1 1 1 1 1 1 1 
1 1 1 1 1 1 1 1 1 
1 1 1 1 1 1 1 1 1 
1 1 1 1 1 1 1 1 1 
1 1 1 1 1 1 1 1 1 
1 1 1 1 1 1 1 1 1 
1 1 1 1 1 1 1 1 1 
1 1 1 1 1 1 1 1 1 
1 1 1 1 1 1 1 1 1 
1 1 1 1 1 1 1 1 1 
1 1 1 1 1 1 1 1 1 
1 1 1 1 1 1 1 1 1 
1 1 1 1 1 1 1 1 1 
1 1 1 1 1 1 1 1 1 
1 1 1 1 1 1 1 1 1 
1 1 1 1 1 1 1 1 1 
1 1 1 1 1 1 1 1 1 
1 1 1 1 1 1 1 1 1 
1 1 1 1 1 1 1 1 1 
1 1 1 1 1 1 1 1 1 
1 1 1 1 1 1 1 1 1 
1 1 1 1 1 1 1 1 1 
1 1 1 1 1 1 1 1 1 
1 1 1 1 1 1 1 1 1 
1 1 1 1 1 1 1 1 1 
1 1 1 1 1 1 1 1 1 
1 1 1 1 1 1 1 1 1 
1 1 1 1 1 1 1 1 1 
1 1 1 1 1 1 1 1 1 
1 1 1 1 1 1 1 1 1 
1 1 1 1 1 1 1 1 1 
1 1 1 1 1 1 1 1 1 
1 1 1 1 1 1 1 1 1 
1 1 1 1 1 1 1 1 1 
1 1 1 1 1 1 1 1 1 
1 1 1 1 1 1 1 1 1 
1 1 1 1 1 1 1 1 1 
1 1 1 1 1 1 1 1 1 
1 1 1 1 1 1 1 1 1 
1 1 1 1 1 1 1 1 1 
1 1 1 1 1 1 1 1 1 
1 1 1 1 1 1 1 1 1 
1 1 1 1 1 1 1 1 1 
1 1 1 1 1 1 1 1 1 
1 1 1 1 1 1 1 1 1 
1 1 1 1 1 1 1 1 1 
1 1 1 1 1 1 1 1 1 
1 1 1 1 1 1 1 1 1 
1 1 1 1 1 1 1 1 1 
1 1 1 1 1 1 1 1 1 
1 1 1 1 1 1 1 1 1 
1 1 1 1 1 1 1 1 1 
1 1 1 1 1 1 1 1 1 
1 1 1 1 1 1 1 1 1 
1 1 1 1 1 1 1 1 1 
1 1 1 1 1 1 1 1 1 
1 1 1 1 1 1 1 1 1 
1 1 1 1 1 1 1 1 1 
1 1 1 1 1 1 1 1 1 
1 1 1 1 1 1 1 1 1 
1 1 1 1 1 1 1 1 1 
1 1 1 1 1 1 1 1 1 
1 1 1 1 1 1 1 1 1 
1 1 1 1 1 1 1 1 1 
1 1 1 1 1 1 1 1 1 
1 1 1 1 1 1 1 1 1 
1 1 1 1 1 1 1 1 1 
1 1 1 1 1 1 1 1 1 
1 1 1 1 1 1 1 1 1 
1 1 1 1 1 1 1 1 1 
1 1 1 1 1 1 1 1 1 
1 1 1 1 1 1 1 1 1 
1 1 1 1 1 1 1 1 1 
1 1 1 1 1 1 1 1 1 
1 1 1 1 1 1 1 1 1 
1 1 1 1 1 1 1 1 1 
1 1 1 1 1 1 1 1 1 
1 1 1 1 1 1 1 1 1 
1 1 1 1 1 1 1 1 1 
1 1 1 1 1 1 1 1 1 
1 1 1 1 1 1 1 1 1 
1 1 1 1 1 1 1 1 1 
1 1 1 1 1 1 1 1 1 
1 1 1 1 1 1 1 1 1 
1 1 1 1 1 1 1 1 1 
1 1 1 1 1 1 1 1 1 
1 1 1 1 1 1 1 1 1 
1 1 1 1 1 1 1 1 1 
1 1 1 1 1 1 1 1 1 
1 1 1 1 1 1 1 1 1 
1 1 1 1 1 1 1 1 1 
1 1 1 1 1 1 1 1 1 
1 1 1 1 1 1 1 1 1 
1 1 1 1 1 1 1 1 1 
1 1 1 1 1 1 1 1 1 
1 1 1 1 1 1 1 1 1 
1 1 1 1 1 1 1 1 1 
1 1 1 1 1 1 1 1 1 
1 1 1 1 1 1 1 1 1 
1 1 1 1 1 1 1 1 1 
1 1 1 1 1 1 1 1 1 
1 1 1 1 1 1 1 1 1 
1 1 1 1 1 1 1 1 1 
1 1 1 1 1 1 1 1 1 
1 1 1 1 1 1 1 1 1 
1 1 1 1 1 1 1 1 1 
1 1 1 1 1 1 1 1 1 
1 1 1 1 1 1 1 1 1 
1 1 1 1 1 1 1 1 1 
1 1 1 1 1 1 1 1 1 
1 1 1 1 1 1 1 1 1 
1 1 1 1 1 1 1 1 1 
1 1 1 1 1 1 1 1 1 
1 1 1 1 1 1 1 1 1 
1 1 1 1 1 1 1 1 1 
1 1 1 1 1 1 1 1 1 
1 1 1 1 1 1 1 1 1 
1 1 1 1 1 1 1 1 1 
1 1 1 1 1 1 1 1 1 
1 1 1 1 1 1 1 1 1 
1 1 1 1 1 1 1 1 1 
1 1 1 1 1 1 1 1 1 
1 1 1 1 1 1 1 1 1 
1 1 1 1 1 1 1 1 1 
1 1 1 1 1 1 1 1 1 
1 1 1 1 1 1 1 1 1 
1 1 1 1 1 1 1 1 1 
1 1 1 1 1 1 1 1 1 
1 1 1 1 1 1 1 1 1 
1 1 1 1 1 1 1 1 1 
1 1 1 1 1 1 1 1 1 
1 1 1 1 1 1 1 1 1 
1 1 1 1 1 1 1 1 1 
1 1 1 1 1 1 1 1 1 
1 1 1 1 1 1 1 1 1 
1 1 1 1 1 1 1 1 1 
1 1 1 1 1 1 1 1 1 
1 1 1 1 1 1 1 1 1 
1 1 1 1 1 1 1 1 1 
1 1 1 1 1 1 1 1 1 
1 1 1 1 1 1 1 1 1 
1 1 1 1 1 1 1 1 1 
1 1 1 1 1 1 1 1 1 
1 1 1 1 1 1 1 1 1 
1 1 1 1 1 1 1 1 1 
1 1 1 1 1 1 1 1 1 
1 1 1 1 1 1 1 1 1 
1 1 1 1 1 1 1 1 1 
1 1 1 1 1 1 1 1 1 
1 1 1 1 1 1 1 1 1 
1 1 1 1 1 1 1 1 1 
1 1 1 1 1 1 1 1 1 
1 1 1 1 1 1 1 1 1 
1 1 1 1 1 1 1 1 1 
1 1 1 1 1 1 1 1 1 
1 1 1 1 1 1 1 1 1 
1 1 1 1 1 1 1 1 1 
1 1 1 1 1 1 1 1 1 
1 1 1 1 1 1 1 1 1 
1 1 1 1 1 1 1 1 1 
1 1 1 1 1 1 1 1 1 
1 1 1 1 1 1 1 1 1 
1 1 1 1 1 1 1 1 1 
1 1 1 1 1 1 1 1 1 
1 1 1 1 1 1 
NORMALS normals float
-0.023796 -0.023796 -0.999434 -0.0168335 -0.707007 -0.707007 -0.707007 -0.0168335 -0.707007 
0.023796 -0.023796 -0.999434 0.0168335 -0.707007 -0.707007 0.999434 -0.023796 -0.023796 
-0.0238028 0 -0.999717 -0.707107 0 -0.707107 0.0238028 0 -0.999717 
0.999717 0 -0.0238028 -0.0238028 0 -0.999717 -0.707107 0 -0.707107 
0.023796 0.023796 -0.999434 0.999434 0.023796 -0.023796 0 0.0238028 -0.999717 
-0.698435 0.017035 -0.71547 0.698435 0.71547 -0.017035 0.707007 0.707007 -0.0168335 
0 0.999717 -0.0238028 0 -0.0238028 -0.999717 0 -0.999717 -0.0238028 
-0.698435 -0.017035 -0.71547 0.568076 -0.581932 -0.581932 -0.023796 0.023796 -0.999434 
-0.707007 0.0168335 -0.707007 0.581932 -0.568076 -0.581932 0.0238028 0 -0.999717 
0.581932 -0.568076 -0.581932 -0.023796 0.023796 -0.999434 -0.689655 0 -0.724138 
0.568076 -0.581932 -0.581932 -0.698435 -0.017035 -0.71547 0 -0.0238028 -0.999717 
0.568076 -0.581932 -0.581932 -0.023796 -0.023796 -0.999434 -0.023796 -0.023796 -0.999434 
-0.707007 -0.0168335 -0.707007 0 -0.707107 -0.707107 -0.698435 -0.017035 -0.71547 
0 -0.698537 -0.715574 0.581932 -0.568076 -0.581932 0.0238028 0 -0.999717 
0.707107 0 -0.707107 -0.707107 0 -0.707107 -0.707107 0 -0.707107 
0.581932 0.568076 -0.581932 0.586624 0.572657 -0.572657 -0.707107 0 -0.707107 
-0.707107 0 -0.707107 0.715574 0 -0.698537 -0.707107 0 -0.707107 
-0.581932 -0.568076 -0.581932 0.999717 0.0238028 0 -0.023796 -0.023796 -0.999434 
-0.0168335 -0.707007 -0.707007 -0.707007 -0.0168335 -0.707007 0 0 -1 
-0.572657 -0.572657 -0.586624 -0.698435 0.017035 -0.71547 0.707107 0.707107 0 
0.707107 0.707107 0 0 0.0238028 -0.999717 -0.698435 0.017035 -0.71547 
0.568076 0.581932 -0.581932 0.572657 0.572657 -0.586624 0 0.707107 -0.707107 
0.0238028 0.999717 0 0 0.707107 -0.707107 -0.707007 -0.0168335 -0.707007 
-0.023796 -0.999434 -0.023796 -0.707007 -0.707007 -0.0168335 0 -1 0 
0.568076 -0.581932 -0.581932 0 -0.999717 -0.0238028 0.0243757 -0.0243757 -0.999406 
0.0238028 -0.999717 0 0.999717 -0.0238028 0 -0.023796 -0.023796 -0.999434 
-0.707007 -0.707007 -0.0168335 -0.707007 -0.707007 -0.0168335 -0.698537 0 -0.715574 
0.581932 -0.568076 -0.581932 0.71547 -0.698435 -0.017035 -0.023796 -0.023796 -0.999434 
-0.023796 -0.999434 -0.023796 -0.999434 -0.023796 -0.023796 0 -0.0238028 -0.999717 
0 -0.999717 -0.0238028 0 -0.0238028 -0.999717 -0.698435 -0.71547 -0.017035 
0 0 -1 0 0 -1 0 0 -1 
-0.698537 0 -0.715574 0.568076 -0.581932 -0.581932 0.698435 -0.71547 -0.017035 
0.023796 -0.023796 -0.999434 0.023796 -0.999434 -0.023796 0.999434 -0.023796 -0.023796 
-0.0238028 0 -0.999717 -0.999717 0 -0.0238028 0 0 -1 
0 0 -1 0 0 -1 -0.698537 0 -0.715574 
0.707107 0 -0.707107 0.999717 0 -0.0238028 -0.0238028 0 -0.999717 
-0.999717 0 -0.0238028 0 0 -1 0 0 -1 
0 0 -1 -0.698537 0 -0.715574 0.572657 0.572657 -0.586624 
0.023796 0.023796 -0.999434 0.999434 0.023796 -0.023796 -0.0238028 0 -0.999717 
-0.999717 0 -0.0238028 0 0 -1 0 0 -1 
0 0 -1 -0.698537 0 -0.715574 0.707007 0.0168335 -0.707007 
0.57735 0.57735 -0.57735 0.57735 0.57735 -0.57735 -0.0238028 0 -0.999717 
-0.999717 0 -0.0238028 0 0 -1 0 0 -1 
0 -0.698537 -0.715574 -0.572657 -0.572657 -0.586624 0.707107 0.707107 0 
0.707007 0.707007 -0.0168335 -0.0238028 0 -0.999717 -0.999717 0 -0.0238028 
0 0 -1 -0.698537 0 -0.715574 0.581932 0.581932 -0.568076 
0.581932 0.581932 -0.568076 -0.0238028 0 -0.999717 -0.999717 0 -0.0238028 
0 0 -1 -0.698537 0 -0.715574 0.572657 0.572657 -0.586624 
0.0168335 0.707007 -0.707007 0.707007 0.707007 -0.0168335 0.707107 0.707107 0 
-0.0243757 0.0243757 -0.999406 -0.999717 0.0238028 0 0 0.024383 -0.999703 
0 0.024383 -0.999703 0 0.715574 -0.698537 0.023796 0.023796 -0.999434 
0.57735 0.57735 -0.57735 0.57735 0.57735 -0.57735 -0.0238028 0.999717 0 
0 1 0 0 1 0 0 1 0 
0.023796 0.999434 -0.023796 -0.023796 -0.999434 0.023796 -0.707007 -0.707007 0.0168335 
0 -0.999717 0.0238028 0.023796 -0.999434 0.023796 0.581932 -0.581932 0.568076 
0.57735 -0.57735 0.57735 -0.707007 -0.707007 0.0168335 -0.707007 -0.707007 0.0168335 
0.57735 -0.57735 0.57735 0.707007 -0.707007 0.0168335 -0.023796 -0.999434 0.023796 
-0.999434 -0.023796 0.023796 0 -0.999717 0.0238028 -0.698537 -0.715574 0 
0.698537 -0.715574 0 0.0238028 -0.999717 0 0.999717 -0.0238028 0 
-0.999717 0 0.0238028 1 0 0 -1 0 0 
0.715574 0 -0.698537 -1 0 0 0.57735 0.57735 -0.57735 
0.707007 0.0168335 -0.707007 -1 0 0 0.586624 0.572657 -0.572657 
0.572657 0.586624 -0.572657 0.0168335 0.707007 -0.707007 -1 0 0 
0.57735 0.57735 -0.57735 0.707007 0.0168335 -0.707007 -0.999434 0.023796 0.023796 
0.586624 0.572657 -0.572657 0.572657 0.586624 -0.572657 0.0168335 0.707007 -0.707007 
-0.0168335 0.707007 0.707007 -0.017035 0.71547 0.698435 0 0.707107 0.707107 
0 0.715574 0.698537 0 0.707107 0.707107 0 0.715574 0.698537 
-0.568076 0.581932 0.581932 -0.572657 0.586624 0.572657 -0.581932 0.581932 0.568076 
0.57735 0.57735 -0.57735 0.707007 0.0168335 -0.707007 -0.0238028 0.999717 0 
0.023796 0.999434 -0.023796 -0.023796 -0.023796 0.999434 0 -0.707107 0.707107 
0.023796 -0.023796 0.999434 -0.0168335 -0.707007 0.707007 -0.572657 -0.572657 0.586624 
-0.572657 -0.586624 0.572657 0 -0.715574 0.698537 0.707002 -0.707002 0.0172439 
0.698537 -0.715574 0 0.023796 -0.999434 0.023796 -0.023796 -0.023796 0.999434 
-0.568076 -0.581932 0.581932 -0.581932 -0.581932 0.568076 -0.0238028 -0.999717 0 
0 -0.715574 0.698537 -0.572657 -0.586624 0.572657 0.698537 -0.715574 0 
0 -1 0 0 -0.715574 -0.698537 0.0238028 -0.999717 0 
0.999717 -0.0238028 0 -0.581932 -0.568076 0.581932 -0.581932 -0.581932 0.568076 
-0.581932 -0.581932 0.568076 0.715574 -0.698537 0 -0.581932 -0.581932 0.568076 
-0.71547 -0.017035 -0.698435 0.698435 -0.71547 -0.017035 0.698435 -0.017035 -0.71547 
0.023796 -0.023796 -0.999434 0.023796 -0.999434 -0.023796 0.999434 -0.023796 -0.023796 
-0.715574 0 -0.698537 0.698537 0 -0.715574 0.0238028 0 -0.999717 
0.999717 0 -0.0238028 -0.715574 0 -0.698537 0.572657 0.572657 -0.586624 
0 0.698537 -0.715574 0 0 -1 0.023796 0.023796 -0.999434 
0.999434 0.023796 -0.023796 -0.999717 0.0238028 0 0.698537 0 -0.715574 
0 0 -1 0.023796 0.023796 -0.999434 0.707007 0.707007 -0.0168335 
0.707007 0.707007 -0.0168335 -0.017035 0.71547 0.698435 -0.0168335 0.707007 0.707007 
0 0.715574 0.698537 0 0.707107 0.707107 0 0.715574 0.698537 
0 0.707107 0.707107 -0.572657 0.586624 0.572657 -0.568076 0.581932 0.581932 
-0.586624 0.572657 0.572657 0.572657 0.572657 -0.586624 0 0.698537 -0.715574 
0 0 -1 0.0243757 0.0243757 -0.999406 0.707107 0.707107 0 
0.707007 0.707007 -0.0168335 -0.999434 0.023796 0.023796 0.707002 0.0172439 -0.707002 
0 0.024383 -0.999703 0.0243757 0.0243757 -0.999406 0.707107 0.707107 0 
0.707107 0.707107 0 -0.023796 0.999434 0.023796 0 0.999717 0.0238028 
0 1 0 0 1 0 0.0238028 0.999717 0 
-0.023796 -0.999434 0.023796 -0.707007 -0.707007 0.0168335 0.698537 -0.715574 0 
0 -1 0 0 -1 0 0 -1 0 
0.017035 -0.71547 -0.698435 0.0238028 -0.999717 0 0.707107 -0.707107 0 
-0.0238028 -0.999717 0 -0.707107 -0.707107 0 0 -1 0 
-0.698537 -0.715574 0 0.707107 -0.707107 0 0.999717 -0.0238028 0 
-0.707107 -0.707107 0 -0.707107 -0.707107 0 0.715574 -0.698537 0 
-0.707007 -0.0168335 -0.707007 -0.023796 -0.999434 -0.023796 -0.707007 -0.0168335 -0.707007 
-0.698537 -0.715574 0 0.698537 -0.715574 0 0.0238028 -0.999717 0 
0.999717 -0.0238028 0 -0.707107 0 -0.707107 -0.707107 0 -0.707107 
1 0 0 -0.707007 0.0168335 -0.707007 -0.707007 0.0168335 -0.707007 
0.999717 0.0238028 0 -0.57735 0.57735 -0.57735 -0.581932 0.581932 -0.568076 
0.707107 0.707107 0 0.707107 0.707107 0 -0.0238028 0.999717 0 
0 1 0 0 1 0 -0.698537 0.715574 0 
-0.707007 0.707007 0.0168335 0.581932 0.581932 0.568076 0.57735 0.57735 0.57735 
0.572657 0.586624 0.572657 0.0238028 0.999717 0 -0.0168335 0.707007 0.707007 
-0.0168335 0.707007 0.707007 0 0.707107 0.707107 0 0.707107 0.707107 
0 0.707107 0.707107 0 0.715574 0.698537 0 0.707107 0.707107 
0 0.715574 0.698537 0.0168335 0.707007 0.707007 0.017035 0.71547 0.698435 
-0.0168335 -0.707007 0.707007 0 -0.715574 0.698537 0 -0.715574 0.698537 
0.017035 -0.71547 0.698435 -0.0238028 -0.999717 0 -0.581932 -0.581932 -0.568076 
0 -1 0 0 -1 0 0 -0.715574 0.698537 
0 -0.715574 0.698537 0 -0.715574 0.698537 0 -0.715574 0.698537 
0.0238028 -0.999717 0 0.999717 -0.0238028 0 -0.581932 -0.581932 -0.568076 
-0.581932 -0.581932 -0.568076 0.715574 -0.698537 0 -0.707007 -0.0168335 -0.707007 
-0.0168335 -0.707007 -0.707007 -0.999434 -0.023796 -0.023796 0 -0.715574 -0.698537 
-0.572657 -0.586624 -0.572657 0.698537 -0.715574 0 0.023796 -0.999434 0.023796 
0.999434 -0.023796 0.023796 -0.707107 0 -0.707107 -0.999717 0 -0.0238028 
0.999717 0 0.0238028 -0.707107 0 -0.707107 -0.999717 0 -0.0238028 
0.999434 0.023796 0.023796 -0.023796 0.023796 -0.999434 -0.999434 0.023796 -0.023796 
-0.568076 0.581932 -0.581932 0.707007 0.707007 0.0168335 0.707007 0.707007 0.0168335 
-0.023796 0.999434 -0.023796 0 0.999717 -0.0238028 0 1 0 
0 1 0 0 1 0 0 1 0 
0 0.715574 0.698537 -0.0168335 0.707007 0.707007 0 0.715574 0.698537 
0 0.707107 0.707107 0 0.715574 0.698537 0 0.707107 0.707107 
0 0.715574 0.698537 0 0.707107 0.707107 0 0.715574 0.698537 
0.0168335 0.707007 0.707007 0 0.999717 0.0238028 0.023796 0.999434 0.023796 
-0.57735 -0.57735 -0.57735 -0.023796 -0.999434 -0.023796 -0.57735 -0.57735 -0.57735 
0 -1 0 0 -1 0 0 -1 0 
0 -1 0 0 -1 0 0 -1 0 
0 -1 0 0.0238028 -0.999717 0 0.999717 -0.0238028 0 
-0.0168335 -0.707007 -0.707007 -0.0168335 -0.707007 -0.707007 -0.707007 -0.0168335 -0.707007 
0 -0.707107 -0.707107 0 -0.707107 -0.707107 -0.568076 -0.581932 -0.581932 
-0.568076 -0.581932 -0.581932 0.715574 -0.698537 0 -1 0 0 
0.707007 -0.707007 0.0168335 0.707007 -0.0168335 0.707007 0.707007 -0.0168335 0.707007 
-1 0 0 0.707107 0 0.707107 0.707107 0 0.707107 
-1 0 0 0.707007 0.0168335 0.707007 0.707007 0.0168335 0.707007 
-0.999717 0.0238028 0 0.568076 0.581932 0.581932 0.581932 0.581932 0.568076 
0.572657 0.586624 0.572657 0.0168335 0.707007 0.707007 0.0168335 0.707007 0.707007 
-0.0238028 0.999717 0 0 1 0 0 1 0 
0 1 0 0 1 0 0 1 0 
0 1 0 0 1 0 0 1 0 
0 1 0 0.0238028 0.999717 0 -0.0168335 -0.707007 -0.707007 
-0.023796 -0.999434 -0.023796 -0.707007 -0.707007 -0.0168335 0 -0.707107 -0.707107 
0 -0.999717 -0.0238028 -0.568076 -0.581932 -0.581932 0 -0.999717 -0.0238028 
0 -0.715574 -0.698537 0 -0.715574 -0.698537 0 -0.715574 -0.698537 
0 -0.715574 -0.698537 0 -0.715574 -0.698537 0 -0.715574 -0.698537 
0 -0.715574 -0.698537 0 -1 0 0.023796 -0.999434 0.023796 
0.999434 -0.023796 0.023796 -0.707107 0 -0.707107 -0.71547 -0.698435 -0.017035 
-0.999717 0 -0.0238028 0.999717 0 0.0238028 -0.581932 0.568076 -0.581932 
-0.586624 0.572657 -0.572657 0.707007 -0.0168335 0.707007 0.715574 0 0.698537 
-0.715574 0 -0.698537 0.707107 0 0.707107 0.715574 0 0.698537 
-0.715574 0 -0.698537 0.707007 0.0168335 0.707007 0.71547 0.017035 0.698435 
-0.999717 0.0238028 0 0.581932 0.581932 -0.568076 0.581932 0.581932 -0.568076 
-0.0238028 0.999717 0 0 0.715574 -0.698537 0 1 0 
0 1 0 0 1 0 0 1 0 
0 1 0 0 1 0 0 1 0 
0 1 0 0.0238028 0.999717 0 -0.0168335 -0.707007 -0.707007 
-0.023796 -0.999434 -0.023796 -0.707007 -0.707007 -0.0168335 0 -0.707107 -0.707107 
0 -0.707107 -0.707107 0 -0.707107 -0.707107 0 -0.707107 -0.707107 
0 -0.707107 -0.707107 0 -0.707107 -0.707107 0 -0.707107 -0.707107 
0 -0.707107 -0.707107 0 -0.707107 -0.707107 0 -0.707107 -0.707107 
0.0168335 -0.707007 -0.707007 0.0168335 -0.707007 -0.707007 0.707007 -0.707007 -0.0168335 
-0.0238028 -0.999717 0 -0.707107 -0.707107 0 0 -1 0 
-0.698537 -0.715574 0 0.707007 -0.707007 0.0168335 0.707007 -0.0168335 0.707007 
0.707007 -0.0168335 0.707007 -0.707107 -0.707107 0 -0.999717 -0.0238028 0 
0.581932 -0.568076 0.581932 0.581932 -0.568076 0.581932 -0.581932 0.568076 -0.581932 
-0.707107 0 -0.707107 0.581932 -0.581932 0.568076 0.999717 -0.0238028 0 
-0.707107 0 -0.707107 -0.707107 0 -0.707107 1 0 0 
-0.707007 0.0168335 -0.707007 -0.707007 0.0168335 -0.707007 1 0 0 
-0.57735 0.57735 -0.57735 -0.581932 0.581932 -0.568076 0.57735 0.57735 -0.57735 
0.999434 0.023796 -0.023796 -0.581932 0.581932 -0.568076 0 0.707107 -0.707107 
-0.568076 0.581932 -0.581932 0.568076 0.581932 -0.581932 0.572657 0.586624 -0.572657 
0 0.715574 -0.698537 0 0.715574 -0.698537 0 0.715574 -0.698537 
0 0.715574 -0.698537 0 0.715574 -0.698537 0 0.715574 -0.698537 
0 0.715574 -0.698537 0 0.715574 -0.698537 0.0168335 0.707007 -0.707007 
0 0.707107 -0.707107 -0.0168335 -0.707007 -0.707007 -0.023796 -0.999434 -0.023796 
-0.57735 -0.57735 -0.57735 0 -0.707107 -0.707107 0 -0.999717 -0.0238028 
0 -0.707107 -0.707107 0 -0.999717 -0.0238028 0 -0.707107 -0.707107 
0 -0.999717 -0.0238028 0 -0.707107 -0.707107 0 -0.999717 -0.0238028 
0.017035 -0.71547 -0.698435 0.0238028 -0.999717 0 0.999717 -0.0238028 0 
-0.581932 -0.581932 -0.568076 -0.581932 -0.581932 -0.568076 0.999717 0 0.0238028 
-0.017035 -0.71547 -0.698435 -0.581932 -0.581932 -0.568076 0 -0.715574 -0.698537 
-0.572657 -0.586624 -0.572657 0.707007 -0.0168335 0.707007 0.715574 0 0.698537 
-0.581932 -0.581932 -0.568076 -0.581932 -0.581932 -0.568076 0.581932 -0.568076 0.581932 
0.586624 -0.572657 0.572657 -0.707007 -0.0168335 -0.707007 -0.57735 -0.57735 -0.57735 
-0.707007 -0.0168335 -0.707007 0.572657 -0.586624 0.572657 0.023796 -0.999434 0.023796 
0.999434 -0.023796 0.023796 -0.707107 0 -0.707107 -0.707107 0 -0.707107 
0.999717 0 0.0238028 -0.707107 0 -0.707107 -0.707107 0 -0.707107 
0.999717 0 0.0238028 -0.023796 0.023796 -0.999434 -0.707007 0.0168335 -0.707007 
-0.568076 0.581932 -0.581932 0.999717 0 0.0238028 -0.023796 0.999434 -0.023796 
-0.568076 0.581932 -0.581932 -0.581932 0.568076 -0.581932 -0.581932 0.568076 -0.581932 
0.572657 0.572657 -0.586624 0 0.698537 -0.715574 0 0.698537 -0.715574 
0 0.698537 -0.715574 0 0.698537 -0.715574 0 0.698537 -0.715574 
0 0.698537 -0.715574 0 0.698537 -0.715574 0 0.698537 -0.715574 
0.017035 0.71547 -0.698435 0.999717 0.0238028 0 -0.023796 0.023796 -0.999434 
-0.707007 0.0168335 -0.707007 0 0.707107 -0.707107 0 0.0238028 -0.999717 
0 0.0238028 -0.999717 0 0.0238028 -0.999717 0 0.0238028 -0.999717 
0 0.0238028 -0.999717 0 0.0238028 -0.999717 0 0.024383 -0.999703 
0 0.024383 -0.999703 0.0243757 0.0243757 -0.999406 0.707107 0.707107 0 
0.707107 0.707107 0 -0.023796 0.999434 -0.023796 0 0.999717 -0.0238028 
0 0.999717 -0.0238028 0 0.999717 -0.0238028 0 0.999717 -0.0238028 
0 0.999717 -0.0238028 0 0.999717 -0.0238028 0 0.999717 -0.0238028 
0 1 0 0 1 0 0.0238028 0.999717 0 
-0.57735 -0.57735 -0.57735 -0.023796 -0.999434 -0.023796 -0.57735 -0.57735 -0.57735 
0 -1 0 0 -1 0 0 -1 0 
0 -1 0 0.023796 -0.999434 0.023796 0.71547 -0.017035 0.698435 
0.707007 -0.0168335 0.707007 -0.023796 -0.023796 -0.999434 -0.0168335 -0.707007 -0.707007 
-0.707007 -0.0168335 -0.707007 0 -0.707107 -0.707107 0 -0.707107 -0.707107 
0 -0.707107 -0.707107 0 -0.707107 -0.707107 -0.568076 -0.581932 -0.581932 
-0.568076 -0.581932 -0.581932 0.581932 -0.568076 0.581932 0.581932 -0.568076 0.581932 
0 -0.0238028 -0.999717 0 -0.707107 -0.707107 -0.698435 -0.017035 -0.71547 
0 -0.707107 -0.707107 -0.581932 -0.568076 -0.581932 -0.017035 -0.698435 -0.71547 
0.581932 -0.581932 0.568076 0.999717 -0.0238028 0 -0.0238028 0 -0.999717 
-0.707107 0 -0.707107 0 -0.707107 -0.707107 -0.568076 -0.581932 -0.581932 
0.715574 -0.698537 0 -0.707107 0 -0.707107 -0.707107 0 -0.707107 
0.707007 -0.707007 0.0168335 0.707007 -0.0168335 0.707007 0.707007 -0.0168335 0.707007 
-0.707107 0 -0.707107 -0.707107 0 -0.707107 0.707107 0 0.707107 
0.707107 0 0.707107 -0.707107 0 -0.707107 -0.707107 0 -0.707107 
0.707107 0 0.707107 0.707107 0 0.707107 -0.707007 0.0168335 -0.707007 
-0.707007 0.0168335 -0.707007 0.707107 0 0.707107 0.707107 0 0.707107 
-0.0168335 0.707007 -0.707007 -0.572657 0.586624 -0.572657 -0.581932 0.568076 -0.581932 
-0.581932 0.568076 -0.581932 0.71547 0.017035 0.698435 0.707007 0.0168335 0.707007 
-0.707107 0 -0.707107 -0.707107 0 -0.707107 0.572657 0.586624 0.572657 
0.57735 0.57735 0.57735 0.568076 0.581932 0.581932 0 0.707107 0.707107 
0 0.715574 0.698537 0.0168335 0.707007 0.707007 0.017035 0.71547 0.698435 
0 0.0238028 -0.999717 -0.698435 0.017035 -0.71547 0.572657 0.586624 -0.572657 
0.568076 0.581932 -0.581932 0 0.715574 -0.698537 0 0.715574 -0.698537 
0 0.715574 -0.698537 0 1 0 0 1 0 
0 1 0 0.023796 0.999434 0.023796 0 0.707107 -0.707107 
-0.023796 -0.023796 -0.999434 -0.023796 -0.999434 -0.023796 -0.57735 -0.57735 -0.57735 
0 -0.707107 -0.707107 0 -0.707107 -0.707107 0 -0.707107 -0.707107 
0 -0.707107 -0.707107 0 -0.707107 -0.707107 0 -0.707107 -0.707107 
-0.568076 -0.581932 -0.581932 0 -0.707107 -0.707107 0 -0.715574 -0.698537 
0 -0.715574 -0.698537 0 -0.715574 -0.698537 0 -0.715574 -0.698537 
0.017035 -0.71547 -0.698435 0.707007 -0.0168335 0.707007 0.71547 -0.017035 0.698435 
-0.0168335 -0.707007 -0.707007 -0.57735 -0.57735 -0.57735 -0.57735 -0.57735 -0.57735 