# vtk DataFile Version 3.0
vtk output
ASCII
DATASET POLYDATA
POINTS 1278 float
60 123 43.0244 60 122.024 44 59.0244 123 44 
60.9756 123 44 59 124 43.0244 59 123.024 44 
58.0244 124 44 60 124 43.0244 61 123.024 44 
61 124 43.0244 62 124 43.0244 62 123.024 44 
63 124 43.0244 63 123.024 44 64 124 43.0244 
64 123.024 44 65 124 43.0244 65 123.024 44 
66 124 43.0244 66 123.024 44 66.9756 124 44 
59 125 43.0244 58.0244 125 44 60 125 43.0244 
61 125 43.0244 62 125 43.0244 63 125 43.0244 
64 125 43.0244 65 125 43.0244 66 125 43.0244 
66.9756 125 44 59 126 43.0244 58.0244 126 44 
60 126 43.0244 61 126 43.0244 62 126 43.0244 
63 126 43.0244 64 126 43.0244 65 126 43.0244 
66 126 43.0244 66.9756 126 44 59 127 43.0244 
58.0244 127 44 60 127 43.0244 61 127 43.0244 
62 127 43.0244 63 127 43.0244 64 127 43.0244 
65 127 43.0244 65.9756 127 44 66 126.976 44 
59 127.976 44 60 127.976 44 61 127.976 44 
62 127.976 44 63 127.976 44 64 127.976 44 
65 127.976 44 60 122.024 45 59.0244 123 45 
61 123 44.0244 61 122.024 45 62 123 44.0244 
62 122.024 45 63 123 44.0244 63 122.024 45 
64 123 44.0244 64 122.024 45 65 123 44.0244 
65 122.024 45 66 123 44.0244 66 122.024 45 
66.9756 123 45 59 123.024 45 58.0244 124 45 
66.9756 124 45 58.0244 125 45 66.9756 125 45 
58.0244 126 45 66.9756 126 45 58.0244 127 45 
65.9756 127 45 66 126.976 45 59 127.976 45 
60 127.976 45 61 127.976 45 62 127.976 45 
63 127.976 45 64 127.976 45 65 127.976 45 
67 122 45.0244 67 121.024 46 66.0244 122 46 
68 122 45.0244 68 121.024 46 68.9756 122 46 
60 123 45.9756 61 123 45.9756 62 123 45.9756 
63 123 45.9756 64 123 45.9756 65 123 45.9756 
65.0244 123 46 66 122.024 46 67 123 45.0244 
68 123 45.0244 68.9756 123 46 59 123.024 46 
58.0244 124 46 60 123.024 46 61 123.024 46 
62 123.024 46 63 123.024 46 64 123.024 46 
65 123.024 46 67 124 45.0244 68 124 45.0244 
69 123.024 46 69 124 45.0244 70 124 45.0244 
70 123.024 46 70.9756 124 46 58.0244 125 46 
67 125 45.0244 68 125 45.0244 69 125 45.0244 
69.9756 125 46 70 124.976 46 58.0244 126 46 
67 126 45.0244 68 126 45.0244 68.9756 126 46 
69 125.976 46 58.0244 127 46 66 127 45.0244 
67 127 45.0244 67.9756 127 46 68 126.976 46 
59 127.976 46 60 127.976 46 61 127.976 46 
62 127.976 46 63 128 45.0244 62.0244 128 46 
64 128 45.0244 64.9756 128 46 65 127.976 46 
66 127.976 46 67 127.976 46 63 129 45.0244 
62.0244 129 46 63.9756 129 46 64 128.976 46 
63 129.976 46 66 122 46.0244 66 121.024 47 
65.0244 122 47 67 121.024 47 68 121.024 47 
68.9756 122 47 60 123 46.0244 60 122.024 47 
59.0244 123 47 61 123 46.0244 61 122.024 47 
62 123 46.0244 62 122.024 47 63 123 46.0244 
63 122.024 47 64 123 46.0244 64 122.024 47 
65 123 46.0244 65 122.024 47 68.9756 123 47 
59 123.024 47 58.0244 124 47 69 123.024 47 
70 123.024 47 70.9756 124 47 58.0244 125 47 
69.9756 125 47 70 124.976 47 58.0244 126 47 
68.9756 126 47 69 125.976 47 59 126.976 47 
59 127 46.9756 60 126.976 47 60 127 46.9756 
60.0244 127 47 68 127 46.0244 68.9756 127 47 
61 127.976 47 62 127.976 47 62.0244 128 47 
64.9756 128 47 65 127.976 47 66 127.976 47 
67 127.976 47 68 127.976 47 62.0244 129 47 
64 129 46.0244 64.9756 129 47 63 129.976 47 
64 129.976 47 61 122 47.0244 61 121.024 48 
60.0244 122 48 62 122 47.0244 62 121.024 48 
63 122 47.0244 63 121.024 48 64 122 47.0244 
64 121.024 48 65 122 47.0244 65 121.024 48 
66 121.024 48 67 121.024 48 68 121.024 48 
68.9756 122 48 60 123 47.9756 60.0244 123 48 
68.9756 123 48 59 124 47.9756 60 124 47.9756 
60.0244 124 48 69 123.024 48 70 123.024 48 
70.9756 124 48 59 125 47.9756 60 125 47.9756 
60.0244 125 48 70 125 47.0244 70.9756 125 48 
59 126 47.9756 60 126 47.9756 60.0244 126 48 
69 126 47.0244 70 126 47.0244 70.9756 126 48 
60.0244 127 48 69 127 47.0244 69.9756 127 48 
70 126.976 48 61 127.976 48 62 127.976 48 
62.0244 128 48 65 128 47.0244 66 128 47.0244 
67 128 47.0244 68 128 47.0244 68.9756 128 48 
69 127.976 48 62.0244 129 48 65 129 47.0244 
66 129 47.0244 67 129 47.0244 67.9756 129 48 
68 128.976 48 63 129.976 48 64 129.976 48 
65 129.976 48 66 129.976 48 67 129.976 48 
60 122 48.0244 60 121.024 49 59.0244 122 49 
61 121.024 49 62 121.024 49 63 121.024 49 
64 121.024 49 65 121.024 49 66 121.024 49 
67 121.024 49 68 121.024 49 68.9756 122 49 
60 123 48.0244 59.0244 123 49 68.9756 123 49 
60 124 48.0244 59.0244 124 49 69 123.024 49 
70 123.024 49 70.9756 124 49 60 125 48.0244 
59.0244 125 49 70.9756 125 49 60 126 48.0244 
59.0244 126 49 70.9756 126 49 60 127 48.0244 
59.0244 127 49 69.9756 127 49 70 126.976 49 
60 127.976 49 61 127.976 49 62 128 48.0244 
61.0244 128 49 68.9756 128 49 69 127.976 49 
62 128.976 49 62.0244 129 49 67.9756 129 49 
68 128.976 49 63 129.976 49 64 129.976 49 
65 129.976 49 66 129.976 49 67 129.976 49 
59 122 49.0244 59 121.024 50 58.0244 122 50 
60 121.024 50 61 121.024 50 62 121.024 50 
63 121.024 50 64 121.024 50 65 121.024 50 
66 121.024 50 67 121.024 50 68 121.024 50 
68.9756 122 50 59 123 49.0244 58.0244 123 50 
68.9756 123 50 59 124 49.0244 58.0244 124 50 
69 123.024 50 70 123.024 50 71 124 49.0244 
71 123.024 50 72 124 49.0244 72 123.024 50 
72.9756 124 50 59 125 49.0244 58.0244 125 50 
71 125 49.0244 72 125 49.0244 72.9756 125 50 
59 126 49.0244 58.0244 126 50 71 126 49.0244 
72 126 49.0244 72.9756 126 50 59 127 49.0244 
58.0244 127 50 70 127 49.0244 71 127 49.0244 
71.9756 127 50 72 126.976 50 59 128 49.0244 
58.0244 128 50 60 128 49.0244 61 128 49.0244 
68.9756 128 50 69 127.976 50 70 127.976 50 
71 127.976 50 59 129 49.0244 58.0244 129 50 
60 129 49.0244 61 129 49.0244 62 129 49.0244 
67.9756 129 50 68 128.976 50 59 129.976 50 
60 129.976 50 61 129.976 50 62 129.976 50 
63 129.976 50 64 129.976 50 65 129.976 50 
66 129.976 50 67 129.976 50 59 121.024 51 
58.0244 122 51 60 121.024 51 61 121.024 51 
62 121.024 51 63 121.024 51 64 121.024 51 
65 121.024 51 66 121.024 51 67 121.024 51 
68 121.024 51 68.9756 122 51 58.0244 123 51 
69 122.024 51 69 123 50.0244 70 123 50.0244 
70 122.024 51 70.9756 123 51 58.0244 124 51 
71 123.024 51 72 123.024 51 72.9756 124 51 
58.0244 125 51 72.9756 125 51 58.0244 126 51 
72.9756 126 51 58.0244 127 51 71.9756 127 51 
72 126.976 51 58.0244 128 51 68.9756 128 51 
69 127.976 51 70 127.976 51 71 127.976 51 
58.0244 129 51 67.9756 129 51 68 128.976 51 
59 129.976 51 60 129.976 51 61 129.976 51 
62 129.976 51 63 129.976 51 64 129.976 51 
65 129.976 51 66 129.976 51 67 129.976 51 
59 121.024 52 58.0244 122 52 60 121.024 52 
61 121.024 52 62 121.024 52 63 121.024 52 
64 121.024 52 65 121.024 52 66 121.024 52 
67 121.024 52 68 121.024 52 69 122 51.0244 
69 121.024 52 70 122 51.0244 70 121.024 52 
70.9756 122 52 58.0244 123 52 70.9756 123 52 
58.0244 124 52 71 123.024 52 72 123.024 52 
72.9756 124 52 58.0244 125 52 72.9756 125 52 
58.0244 126 52 72.9756 126 52 58.0244 127 52 
72 127 51.0244 72.9756 127 52 58.0244 128 52 
69 128 51.0244 70 128 51.0244 71 128 51.0244 
72 128 51.0244 72.9756 128 52 58.0244 129 52 
68 129 51.0244 69 129 51.0244 70 129 51.0244 
71 129 51.0244 71.9756 129 52 72 128.976 52 
59 129.976 52 60 129.976 52 61 129.976 52 
62 129.976 52 63 129.976 52 64 129.976 52 
65 129.976 52 66 129.976 52 67 129.976 52 
68 129.976 52 69 129.976 52 70 129.976 52 
71 129.976 52 60 121 52.0244 60 120.024 53 
59.0244 121 53 61 121 52.0244 61 120.024 53 
62 121 52.0244 62 120.024 53 63 121 52.0244 
63 120.024 53 64 121 52.0244 64 120.024 53 
65 121 52.0244 65 120.024 53 66 121 52.0244 
66 120.024 53 67 121 52.0244 67 120.024 53 
68 121 52.0244 68 120.024 53 69 121 52.0244 
69 120.024 53 70 121 52.0244 70 120.024 53 
70.9756 121 53 59 121.024 53 58.0244 122 53 
70.9756 122 53 58.0244 123 53 71 122.024 53 
71 123 52.0244 72 123 52.0244 72 122.024 53 
72.9756 123 53 58.0244 124 53 72.9756 124 53 
58.0244 125 53 72.9756 125 53 58.0244 126 53 
72.9756 126 53 58.0244 127 53 72.9756 127 53 
58.0244 128 53 72.9756 128 53 58.0244 129 53 
71.9756 129 53 72 128.976 53 59 129.976 53 
60 129.976 53 61 129.976 53 62 129.976 53 
63 129.976 53 64 129.976 53 65 129.976 53 
66 129.976 53 67 129.976 53 68 129.976 53 
69 129.976 53 70 129.976 53 71 129.976 53 
61 120 53.0244 61 119.024 54 60.0244 120 54 
62 120 53.0244 62 119.024 54 63 120 53.0244 
63 119.024 54 64 120 53.0244 64 119.024 54 
65 120 53.0244 65 119.024 54 66 120 53.0244 
66 119.024 54 67 120 53.0244 67 119.024 54 
68 120 53.0244 68 119.024 54 69 120 53.0244 
69 119.024 54 70 120 53.0244 70 119.024 54 
71 120 53.0244 71 119.024 54 72 120 53.0244 
72 119.024 54 73 120 53.0244 73 119.024 54 
74 120 53.0244 74 119.024 54 74.9756 120 54 
60 120.024 54 59.0244 121 54 71 121 53.0244 
72 121 53.0244 73 121 53.0244 74 121 53.0244 
74.9756 121 54 59 122 53.9756 60 121.976 54 
60 122 53.9756 60.0244 122 54 71 122 53.0244 
72 122 53.0244 73 122 53.0244 74 122 53.0244 
74.9756 122 54 59 123 53.9756 59.0244 123 54 
60 122.024 54 73 123 53.0244 73.9756 123 54 
74 122.976 54 59 123.024 54 58.0244 124 54 
72.9756 124 54 73 123.976 54 58.0244 125 54 
72.9756 125 54 58.0244 126 54 72.9756 126 54 
58.0244 127 54 72.9756 127 54 58.0244 128 54 
72.9756 128 54 58.0244 129 54 71.9756 129 54 
72 128.976 54 59 130 53.0244 58.0244 130 54 
60 130 53.0244 61 130 53.0244 62 130 53.0244 
63 130 53.0244 64 130 53.0244 65 130 53.0244 
66 130 53.0244 66.9756 130 54 67 129.976 54 
68 129.976 54 69 129.976 54 70 129.976 54 
71 129.976 54 59 131 53.0244 58.0244 131 54 
60 131 53.0244 61 131 53.0244 62 131 53.0244 
63 131 53.0244 64 131 53.0244 65 131 53.0244 
65.9756 131 54 66 130.976 54 59 131.976 54 
60 131.976 54 61 131.976 54 62 131.976 54 
63 131.976 54 64 131.976 54 65 131.976 54 
64 119 54.0244 64 118.024 55 63.0244 119 55 
65 119 54.0244 65 118.024 55 66 119 54.0244 
66 118.024 55 67 119 54.0244 67 118.024 55 
68 119 54.0244 68 118.024 55 69 119 54.0244 
69 118.024 55 70 119 54.0244 70 118.024 55 
70.9756 119 55 61 119.024 55 60.0244 120 55 
62 119.024 55 63 119.024 55 71 119.024 55 
72 119.024 55 73 119.024 55 74 120 54.9756 
73.9756 120 55 60 120.024 55 59.0244 121 55 
74 121 54.9756 73.9756 121 55 60 122 54.0244 
[...]
POINT_DATA 1278
SCALARS scalars float
LOOKUP_TABLE default
1 1 1 1 1 1 1 1 1 
1 1 1 1 1 1 1 1 1 
1 1 1 1 1 1 1 1 1 
1 1 1 1 1 1 1 1 1 
1 1 1 1 1 1 1 1 1 
1 1 1 1 1 1 1 1 1 
1 1 1 1 1 1 1 1 1 
1 1 1 1 1 1 1 1 1 
1 1 1 1 1 1 1 1 1 
1 1 1 1 1 1 1 1 1 
1 1 1 1 1 1 1 1 1 
1 1 1 1 1 1 1 1 1 
1 1 1 1 1 1 1 1 1 
1 1 1 1 1 1 1 1 1 
1 1 1 1 1 1 1 1 1 
1 1 1 1 1 1 1 1 1 
1 1 1 1 1 1 1 1 1 
1 1 1 1 1 1 1 1 1 
1 1 1 1 1 1 1 1 1 
1 1 1 1 1 1 1 1 1 
1 1 1 1 1 1 1 1 1 
1 1 1 1 1 1 1 1 1 
1 1 1 1 1 1 1 1 1 
1 1 1 1 1 1 1 1 1 
1 1 1 1 1 1 1 1 1 
1 1 1 1 1 1 1 1 1 
1 1 1 1 1 1 1 1 1 
1 1 1 1 1 1 1 1 1 
1 1 1 1 1 1 1 1 1 
1 1 1 1 1 1 1 1 1 
1 1 1 1 1 1 1 1 1 
1 1 1 1 1 1 1 1 1 
1 1 1 1 1 1 1 1 1 
1 1 1 1 1 1 1 1 1 
1 1 1 1 1 1 1 1 1 
1 1 1 1 1 1 1 1 1 
1 1 1 1 1 1 1 1 1 
1 1 1 1 1 1 1 1 1 
1 1 1 1 1 1 1 1 1 
1 1 1 1 1 1 1 1 1 
1 1 1 1 1 1 1 1 1 
1 1 1 1 1 1 1 1 1 
1 1 1 1 1 1 1 1 1 
1 1 1 1 1 1 1 1 1 
1 1 1 1 1 1 1 1 1 
1 1 1 1 1 1 1 1 1 
1 1 1 1 1 1 1 1 1 
1 1 1 1 1 1 1 1 1 
1 1 1 1 1 1 1 1 1 
1 1 1 1 1 1 1 1 1 
1 1 1 1 1 1 1 1 1 
1 1 1 1 1 1 1 1 1 
1 1 1 1 1 1 1 1 1 
1 1 1 1 1 1 1 1 1 
1 1 1 1 1 1 1 1 1 
1 1 1 1 1 1 1 1 1 
1 1 1 1 1 1 1 1 1 
1 1 1 1 1 1 1 1 1 
1 1 1 1 1 1 1 1 1 
1 1 1 1 1 1 1 1 1 
1 1 1 1 1 1 1 1 1 
1 1 1 1 1 1 1 1 1 
1 1 1 1 1 1 1 1 1 
1 1 1 1 1 1 1 1 1 
1 1 1 1 1 1 1 1 1 
1 1 1 1 1 1 1 1 1 
1 1 1 1 1 1 1 1 1 
1 1 1 1 1 1 1 1 1 
1 1 1 1 1 1 1 1 1 
1 1 1 1 1 1 1 1 1 
1 1 1 1 1 1 1 1 1 
1 1 1 1 1 1 1 1 1 
1 1 1 1 1 1 1 1 1 
1 1 1 1 1 1 1 1 1 
1 1 1 1 1 1 1 1 1 
1 1 1 1 1 1 1 1 1 
1 1 1 1 1 1 1 1 1 
1 1 1 1 1 1 1 1 1 
1 1 1 1 1 1 1 1 1 
1 1 1 1 1 1 1 1 1 
1 1 1 1 1 1 1 1 1 
1 1 1 1 1 1 1 1 1 
1 1 1 1 1 1 1 1 1 
1 1 1 1 1 1 1 1 1 
1 1 1 1 1 1 1 1 1 
1 1 1 1 1 1 1 1 1 
1 1 1 1 1 1 1 1 1 
1 1 1 1 1 1 1 1 1 
1 1 1 1 1 1 1 1 1 
1 1 1 1 1 1 1 1 1 
1 1 1 1 1 1 1 1 1 
1 1 1 1 1 1 1 1 1 
1 1 1 1 1 1 1 1 1 
1 1 1 1 1 1 1 1 1 
1 1 1 1 1 1 1 1 1 
1 1 1 1 1 1 1 1 1 
1 1 1 1 1 1 1 1 1 
1 1 1 1 1 1 1 1 1 
1 1 1 1 1 1 1 1 1 
1 1 1 1 1 1 1 1 1 
1 1 1 1 1 1 1 1 1 
1 1 1 1 1 1 1 1 1 
1 1 1 1 1 1 1 1 1 
1 1 1 1 1 1 1 1 1 
1 1 1 1 1 1 1 1 1 
1 1 1 1 1 1 1 1 1 
1 1 1 1 1 1 1 1 1 
1 1 1 1 1 1 1 1 1 
1 1 1 1 1 1 1 1 1 
1 1 1 1 1 1 1 1 1 
1 1 1 1 1 1 1 1 1 
1 1 1 1 1 1 1 1 1 
1 1 1 1 1 1 1 1 1 
1 1 1 1 1 1 1 1 1 
1 1 1 1 1 1 1 1 1 
1 1 1 1 1 1 1 1 1 
1 1 1 1 1 1 1 1 1 
1 1 1 1 1 1 1 1 1 
1 1 1 1 1 1 1 1 1 
1 1 1 1 1 1 1 1 1 
1 1 1 1 1 1 1 1 1 
1 1 1 1 1 1 1 1 1 
1 1 1 1 1 1 1 1 1 
1 1 1 1 1 1 1 1 1 
1 1 1 1 1 1 1 1 1 
1 1 1 1 1 1 1 1 1 
1 1 1 1 1 1 1 1 1 
1 1 1 1 1 1 1 1 1 
1 1 1 1 1 1 1 1 1 
1 1 1 1 1 1 1 1 1 
1 1 1 1 1 1 1 1 1 
1 1 1 1 1 1 1 1 1 
1 1 1 1 1 1 1 1 1 
1 1 1 1 1 1 1 1 1 
1 1 1 1 1 1 1 1 1 
1 1 1 1 1 1 1 1 1 
1 1 1 1 1 1 1 1 1 
1 1 1 1 1 1 1 1 1 
1 1 1 1 1 1 1 1 1 
1 1 1 1 1 1 1 1 1 
1 1 1 1 1 1 1 1 1 
1 1 1 1 1 1 1 1 1 

NORMALS normals float
0 -0.024383 -0.999703 0 -0.999703 -0.024383 -0.698217 -0.715673 -0.0174554 
0.567847 -0.582044 -0.582044 -0.0243757 -0.0243757 -0.999406 -0.707002 -0.707002 -0.0172439 
-0.999406 -0.0243757 -0.0243757 0 0 -1 0.567847 -0.582044 -0.582044 
0 -0.024383 -0.999703 0 -0.024383 -0.999703 0 -0.707107 -0.707107 
0 -0.024383 -0.999703 0 -0.707107 -0.707107 0 -0.024383 -0.999703 
0 -0.707107 -0.707107 0 -0.024383 -0.999703 0 -0.707107 -0.707107 
0.0243757 -0.0243757 -0.999406 0.0172439 -0.707002 -0.707002 0.999406 -0.0243757 -0.0243757 
-0.024383 0 -0.999703 -0.999703 0 -0.024383 0 0 -1 
0 0 -1 0 0 -1 0 0 -1 
0 0 -1 0 0 -1 0.024383 0 -0.999703 
0.999703 0 -0.024383 -0.024383 0 -0.999703 -0.999703 0 -0.024383 
0 0 -1 0 0 -1 0 0 -1 
0 0 -1 0 0 -1 0 0 -1 
0.0243757 0.0243757 -0.999406 0.999406 0.0243757 -0.0243757 -0.0243757 0.0243757 -0.999406 
-0.999406 0.0243757 -0.0243757 0 0.024383 -0.999703 0 0.024383 -0.999703 
0 0.024383 -0.999703 0 0.024383 -0.999703 0 0.024383 -0.999703 
0.0243757 0.0243757 -0.999406 0.707002 0.707002 -0.0172439 0.707002 0.707002 -0.0172439 
-0.0243757 0.999406 -0.0243757 0 0.999703 -0.024383 0 0.999703 -0.024383 
0 0.999703 -0.024383 0 0.999703 -0.024383 0 0.999703 -0.024383 
0.0243757 0.999406 -0.0243757 -0.0243757 -0.999406 0.0243757 -0.707002 -0.707002 0.0172439 
0.57254 -0.586853 -0.57254 0 -1 0 0 -0.715782 -0.698324 
0 -1 0 0 -0.715782 -0.698324 0 -1 0 
0 -0.715782 -0.698324 0 -1 0 0 -0.715782 -0.698324 
0 -1 0 0.0172439 -0.707002 -0.707002 0.0243757 -0.999406 -0.0243757 
0.707002 -0.0172439 -0.707002 -0.707107 -0.707107 0 -0.999703 -0.024383 0 
0.715782 0 -0.698324 -1 0 0 0.715782 0 -0.698324 
-1 0 0 0.715673 0.0174554 -0.698217 -0.999703 0.024383 0 
0.582044 0.582044 -0.567847 0.582044 0.582044 -0.567847 -0.024383 0.999703 0 
0 1 0 0 1 0 0 1 0 
0 0.715782 -0.698324 0 0.715782 -0.698324 0.024383 0.999703 0 
-0.0243757 -0.0243757 -0.999406 -0.0243757 -0.999406 -0.0243757 -0.57735 -0.57735 -0.57735 
0.0243757 -0.0243757 -0.999406 0.0243757 -0.999406 -0.0243757 0.999406 -0.0243757 -0.0243757 
-0.0243757 -0.999406 0.0243757 0 -1 0 0 -1 0 
0 -1 0 0 -1 0 -0.698324 -0.715782 0 
-0.707107 -0.707107 0 -0.582044 -0.582044 -0.567847 0.698324 0 -0.715782 
0.024383 0 -0.999703 0.715673 -0.698217 -0.0174554 -0.024383 -0.999703 0 
-0.999703 -0.024383 0 0 -1 0 0 -1 0 
0 -1 0 0 -1 0 0 -1 0 
-0.698324 -0.715782 0 0.698324 0 -0.715782 0 0 -1 
0.698217 -0.715673 -0.0174554 0 -0.024383 -0.999703 0.024383 0 -0.999703 
0.0249844 -0.999376 -0.0249844 0.999703 0 -0.024383 -1 0 0 
0.698324 0 -0.715782 0 0 -1 0.0243757 0.0243757 -0.999406 
0.707002 0.707002 -0.0172439 0.715673 0.698217 -0.0174554 -1 0 0 
0.698324 0 -0.715782 0.0243757 0.0243757 -0.999406 0.707002 0.707002 -0.0172439 
0.707002 0.707002 -0.0172439 -0.999406 0.0243757 0.0243757 0.567847 0.582044 -0.582044 
0.0243757 0.0243757 -0.999406 0.57735 0.57735 -0.57735 0.57735 0.57735 -0.57735 
-0.0243757 0.999406 0.0243757 0 0.999703 0.024383 0 1 0 
-0.698324 0.715782 0 -0.0174554 0.698217 -0.715673 -0.715673 0.698217 -0.0174554 
0.0172439 0.707002 -0.707002 0.707002 0.707002 -0.0172439 0.698324 0.715782 0 
0 0.999703 -0.024383 0.0243757 0.999406 -0.0243757 0 0.024383 -0.999703 
-0.999376 0.0249844 -0.0249844 0.567847 0.582044 -0.582044 0.57735 0.57735 -0.57735 
0 0.999703 -0.024383 -0.57735 -0.57735 -0.57735 -0.0243757 -0.999406 -0.0243757 
-0.57735 -0.57735 -0.57735 0 -1 0 0.024383 -0.999703 0 
0.999703 -0.024383 0 -0.024383 -0.999703 0 -0.024383 -0.999703 0 
-0.707107 -0.707107 0 0 -0.999703 -0.024383 0 -0.707107 -0.707107 
0 -0.999703 -0.024383 0 -0.707107 -0.707107 0 -0.999703 -0.024383 
0 -0.707107 -0.707107 0 -0.999703 -0.024383 0 -0.707107 -0.707107 
-0.698217 -0.715673 -0.0174554 -0.567847 -0.582044 -0.582044 0.715782 -0.698324 0 
-0.707002 -0.707002 0.0172439 -0.999406 -0.0243757 0.0243757 0.698324 -0.715782 0 
0.0249922 -0.999688 0 1 0 0 -0.999703 0 0.024383 
0.582044 0.582044 -0.567847 0.586853 0.57254 -0.57254 -0.999406 0.0243757 0.0243757 
0.586853 0.57254 -0.57254 0.582044 0.582044 -0.567847 -0.0172439 0.707002 0.707002 
-0.0172439 0.707002 0.707002 -0.567847 0.582044 0.582044 -0.567847 0.582044 0.582044 
-0.582044 0.582044 0.567847 0.57735 0.57735 -0.57735 0.707002 0.0172439 -0.707002 
-0.024383 0.999703 0 -0.698324 0.715782 0 -0.715782 0.698324 0 
0.586853 0.57254 -0.57254 0.57254 0.586853 -0.57254 0 0.715782 -0.698324 
0 0.715782 -0.698324 0.0172439 0.707002 -0.707002 -0.999703 0.024383 0 
0.57735 0.57735 -0.57735 0.707002 0.0172439 -0.707002 -0.024383 0.999703 0 
0.0243757 0.999406 -0.0243757 -0.0172439 -0.707002 -0.707002 -0.0243757 -0.999406 -0.0243757 
-0.707002 -0.0172439 -0.707002 0 -0.707107 -0.707107 0 -0.999703 -0.024383 
0 -0.707107 -0.707107 0 -0.999703 -0.024383 0 -0.707107 -0.707107 
0 -0.999703 -0.024383 -0.567847 -0.582044 -0.582044 0 -0.999703 -0.024383 
0 -1 0 0 -1 0 0.024383 -0.999703 0 
0.999703 -0.024383 0 -0.999703 -0.024383 0 -1 0 0 
0.715782 -0.698324 0 -0.0243757 -0.0243757 0.999406 -0.999688 0 0.0249922 
-1 0 0 0.698324 -0.715782 0 0.024383 -0.999703 0 
0.999703 -0.024383 0 -0.024383 0 0.999703 -0.999688 0 0.0249922 
-1 0 0 0.582044 0.567847 -0.582044 0.999703 0 -0.024383 
-0.0243757 0.0243757 0.999406 -0.999376 0.0249844 0.0249844 -1 0 0 
0.57254 0.57254 -0.586853 0.0243757 0.0243757 -0.999406 0.999406 0.0243757 -0.0243757 
-0.715673 0.0174554 -0.698217 0.707002 0.0172439 -0.707002 0.707002 0.707002 -0.0172439 
0.707002 0.707002 -0.0172439 -0.024383 0.999703 0 -0.57254 0.586853 -0.57254 
-0.586853 0.57254 -0.57254 0.57254 0.57254 -0.586853 0 0.698324 -0.715782 
0 0.698324 -0.715782 0.0172439 0.707002 -0.707002 0.707002 0.707002 -0.0172439 
0.707002 0.707002 -0.0172439 -0.999703 0.024383 0 0.698217 0.0174554 -0.715673 
0 0.024383 -0.999703 0.0243757 0.0243757 -0.999406 0.707002 0.707002 -0.0172439 
0.707002 0.707002 -0.0172439 -0.024383 0.999703 0 0 1 0 
0 0.999703 -0.024383 0 0.999703 -0.024383 0.0243757 0.999406 -0.0243757 
-0.707002 -0.0172439 -0.707002 -0.0243757 -0.999406 -0.0243757 -0.707002 -0.0172439 -0.707002 
0 -1 0 0 -1 0 0 -1 0 
0 -1 0 0 -1 0 0 -1 0 
0 -1 0 0.024383 -0.999703 0 0.999703 -0.024383 0 
-0.999703 0 -0.024383 -0.707107 0 -0.707107 0.715782 -0.698324 0 
-0.999703 0 -0.024383 -0.707107 0 -0.707107 0.698324 -0.715782 0 
0.024383 -0.999703 0 0.715673 -0.0174554 -0.698217 -0.999703 0 -0.024383 
-0.707107 0 -0.707107 0.715782 0 -0.698324 -0.999703 0 -0.024383 
-0.707107 0 -0.707107 0.715673 0.0174554 -0.698217 -0.707002 0.0172439 -0.707002 
-0.707002 0.0172439 -0.707002 0.582044 0.582044 -0.567847 0.582044 0.582044 -0.567847 
-0.0172439 0.707002 -0.707002 -0.57254 0.586853 -0.57254 -0.57735 0.57735 -0.57735 
-0.57735 0.57735 -0.57735 0.707107 0.707107 0 0.707107 0.707107 0 
-0.57735 0.57735 -0.57735 -0.582044 0.582044 -0.567847 0.707107 0.707107 0 
0.707107 0.707107 0 -0.024383 0.999703 0 0 1 0 
0 1 0 0 1 0 0.024383 0.999703 0 
-0.707002 -0.0172439 -0.707002 -0.0243757 -0.999406 -0.0243757 -0.999406 -0.0243757 -0.0243757 
0 -1 0 0 -1 0 0 -1 0 
0 -1 0 0 -1 0 0 -1 0 
0 -1 0 0 -1 0 0.024383 -0.999703 0 
0.999703 -0.024383 0 -0.707107 0 -0.707107 -0.999703 0 -0.024383 
0.586853 -0.57254 -0.57254 -0.707107 0 -0.707107 -0.999703 0 -0.024383 
0.57254 -0.586853 -0.57254 0 -0.715782 -0.698324 0.698217 -0.0174554 -0.715673 
0 -0.999703 -0.024383 0.0243757 -0.0243757 -0.999406 0.0243757 -0.999406 -0.0243757 
0.999406 -0.0243757 -0.0243757 -0.707107 0 -0.707107 -0.999703 0 -0.024383 
0.698324 0 -0.715782 0.024383 0 -0.999703 0.999703 0 -0.024383 
-0.707107 0 -0.707107 -0.999703 0 -0.024383 0.698324 0 -0.715782 
0.0243757 0.0243757 -0.999406 0.999406 0.0243757 -0.0243757 -0.707107 0 -0.707107 
-0.999703 0 -0.024383 0.567847 0.582044 -0.582044 0.0243757 0.0243757 -0.999406 
0.707002 0.707002 -0.0172439 0.707002 0.707002 -0.0172439 -0.024383 0 -0.999703 
-0.999703 0 -0.024383 0 0.698324 -0.715782 -0.57254 0.57254 -0.586853 
0.707107 0.707107 0 0.698324 0.715782 0 0 0.999703 -0.024383 
0.0243757 0.999406 -0.0243757 -0.0243757 0.0243757 -0.999406 -0.999406 0.0243757 -0.0243757 
0 0.024383 -0.999703 0 0.024383 -0.999703 -0.567847 0.582044 -0.582044 
0.707107 0.707107 0 0.707107 0.707107 0 -0.0243757 0.999406 -0.0243757 
0 0.999703 -0.024383 0 0.999703 -0.024383 0 0.999703 -0.024383 
0 1 0 0 1 0 0 1 0 
0 1 0 0.024383 0.999703 0 -0.024383 -0.999703 0 
-0.999703 -0.024383 0 0 -1 0 0 -1 0 
0 -1 0 0 -1 0 0 -1 0 
0 -1 0 0 -1 0 0 -1 0 
0.024383 -0.999703 0 0.582044 -0.582044 -0.567847 -1 0 0 
0.567847 -0.582044 -0.582044 0.567847 -0.582044 -0.582044 0.0172439 -0.707002 -0.707002 
0.0172439 -0.707002 -0.707002 0.707002 -0.707002 -0.0172439 -1 0 0 
0.698324 -0.715782 0 0.024383 -0.999703 0 0.999703 -0.024383 0 
-1 0 0 1 0 0 -1 0 0 
0.999703 0.024383 0 -1 0 0 0.582044 0.582044 -0.567847 
0.582044 0.582044 -0.567847 -1 0 0 0.582044 0.582044 -0.567847 
0.57254 0.586853 -0.57254 0 0.715782 -0.698324 0.0174554 0.715673 -0.698217 
-0.999703 0.024383 0 0.582044 0.582044 -0.567847 0.582044 0.582044 -0.567847 
-0.024383 0.999703 0 0 1 0 0 1 0 
0 1 0 0 1 0 0 1 0 
0 1 0 0 1 0 0.024383 0.999703 0 
-0.024383 -0.999703 0 -0.999703 -0.024383 0 0 -0.715782 -0.698324 
0 -0.715782 -0.698324 0 -0.715782 -0.698324 0 -0.715782 -0.698324 
0 -0.715782 -0.698324 0 -0.715782 -0.698324 0 -0.715782 -0.698324 
0 -0.715782 -0.698324 0 -0.715782 -0.698324 0.567847 -0.582044 -0.582044 
0 -0.707107 -0.707107 0.0172439 -0.707002 -0.707002 0.0172439 -0.707002 -0.707002 
0.999406 -0.0243757 -0.0243757 -1 0 0 0.586853 -0.57254 -0.57254 
-1 0 0 0.57254 -0.586853 -0.57254 0.0174554 -0.715673 -0.698217 
0.999703 -0.024383 0 -1 0 0 1 0 0 
-1 0 0 1 0 0 -1 0 0 
0.582044 0.567847 -0.582044 0.999703 0 -0.024383 -1 0 0 
0.57254 0.57254 -0.586853 0 0.698324 -0.715782 0 0.698324 -0.715782 
0.0243757 0.0243757 -0.999406 0.999406 0.0243757 -0.0243757 -0.999703 0.024383 0 
0.567847 0.582044 -0.582044 0 0.024383 -0.999703 0 0.024383 -0.999703 
0.0243757 0.0243757 -0.999406 0.707002 0.707002 -0.0172439 0.707002 0.707002 -0.0172439 
-0.024383 0.999703 0 0 1 0 0 1 0 
0 1 0 0 1 0 0 1 0 
0 1 0 0 1 0 0 1 0 
0 0.999703 -0.024383 0 0.999703 -0.024383 0 0.999703 -0.024383 
0.0243757 0.999406 -0.0243757 -0.0172439 -0.707002 -0.707002 -0.0243757 -0.999406 -0.0243757 
-0.707002 -0.707002 -0.0172439 0 -0.707107 -0.707107 0 -0.707107 -0.707107 
0 -0.707107 -0.707107 0 -0.707107 -0.707107 0 -0.707107 -0.707107 
0 -0.707107 -0.707107 0 -0.707107 -0.707107 0 -0.707107 -0.707107 
0 -0.707107 -0.707107 0 -0.707107 -0.707107 0 -0.707107 -0.707107 
0 -0.707107 -0.707107 0 -0.707107 -0.707107 0 -0.707107 -0.707107 
0 -0.707107 -0.707107 0 -0.707107 -0.707107 0 -0.707107 -0.707107 
0 -0.707107 -0.707107 0.0172439 -0.707002 -0.707002 0.0172439 -0.707002 -0.707002 
0.707002 -0.0172439 -0.707002 -0.707002 -0.707002 0.0172439 -0.999406 -0.0243757 0.0243757 
0.586853 -0.57254 -0.57254 -0.999703 0 0.024383 0.567847 -0.582044 -0.582044 
0.567847 -0.582044 -0.582044 0.0172439 -0.707002 -0.707002 0.0172439 -0.707002 -0.707002 
0.707002 -0.0172439 -0.707002 -1 0 0 1 0 0 
-1 0 0 1 0 0 -1 0 0 
1 0 0 -1 0 0 1 0 0 
-1 0 0 0.999703 0.024383 0 -0.999703 0.024383 0 
0.707107 0.707107 0 0.707107 0.707107 0 -0.0174554 0.715673 -0.698217 
0 0.715782 -0.698324 0 0.715782 -0.698324 0 0.715782 -0.698324 
0 0.715782 -0.698324 0 0.715782 -0.698324 0 0.715782 -0.698324 
0 0.715782 -0.698324 0 1 0 0 1 0 
0 1 0 0 1 0 0.024383 0.999703 0 
-0.0172439 -0.707002 -0.707002 -0.0243757 -0.999406 -0.0243757 -0.707002 -0.707002 -0.0172439 
0 -0.707107 -0.707107 0 -0.999703 -0.024383 0 -0.707107 -0.707107 
0 -0.999703 -0.024383 0 -0.707107 -0.707107 0 -0.707107 -0.707107 
0 -0.707107 -0.707107 0 -0.707107 -0.707107 0 -0.707107 -0.707107 
0 -0.707107 -0.707107 0 -0.707107 -0.707107 0 -0.707107 -0.707107 
0 -0.707107 -0.707107 0 -0.707107 -0.707107 0 -0.707107 -0.707107 
0 -0.707107 -0.707107 0 -0.707107 -0.707107 0 -0.707107 -0.707107 
0 -0.024383 -0.999703 0 -0.999703 -0.024383 0 -0.024383 -0.999703 
0 -0.999703 -0.024383 0 -0.024383 -0.999703 0 -0.999703 -0.024383 
0.0249844 -0.0249844 -0.999376 0.024383 -0.999703 0 0.999703 -0.024383 0 
-0.715782 -0.698324 0 -1 0 0 0.698324 0 -0.715782 
0 0 -1 0 0 -1 0.0249922 0 -0.999688 
1 0 0 -0.0243757 -0.0243757 0.999406 -1 0 0 
-0.999688 0 0.0249922 -1 0 0 0.57254 -0.57254 -0.586853 
0 -0.698324 -0.715782 0 0 -1 0.0243757 0.0243757 -0.999406 
0.999406 0.0243757 -0.0243757 -0.582044 -0.567847 0.582044 -0.582044 -0.582044 0.567847 
-0.999703 -0.024383 0 0.707002 0.0172439 -0.707002 0.57735 0.57735 -0.57735 
0.57735 0.57735 -0.57735 -0.582044 -0.582044 0.567847 -0.999703 -0.024383 0 
0.715782 0.698324 0 0.707002 0.707002 -0.0172439 -1 0 0 
1 0 0 -1 0 0 1 0 0 
-1 0 0 1 0 0 -1 0 0 
0.999703 0.024383 0 -1 0 0 0.707107 0.707107 0 
0.707107 0.707107 0 -0.0174554 0.698217 -0.715673 -0.999703 0 -0.024383 
0 0.698324 -0.715782 0 0.698324 -0.715782 0 0.698324 -0.715782 
0 0.698324 -0.715782 0 0.698324 -0.715782 0 0.698324 -0.715782 
0.0174554 0.715673 -0.698217 0.707107 0.707107 0 0.698324 0.715782 0 
0 1 0 0 1 0 0 1 0 
0.024383 0.999703 0 -0.0249844 0.0249844 -0.999376 -0.999703 0.024383 0 
0 0.0249922 -0.999688 0 0.0249922 -0.999688 0 0.0249922 -0.999688 
0 0.0249922 -0.999688 0 0.0249922 -0.999688 0.0249844 0.0249844 -0.999376 
0.707107 0.707107 0 0.707107 0.707107 0 -0.024383 0.999703 0 
0 1 0 0 1 0 0 1 0 
0 1 0 0 1 0 0.024383 0.999703 0 
-0.0172439 -0.707002 -0.707002 -0.0243757 -0.999406 -0.0243757 -0.707002 -0.707002 -0.0172439 
0 -0.707107 -0.707107 0 -0.707107 -0.707107 0 -0.707107 -0.707107 
0 -0.707107 -0.707107 0 -0.707107 -0.707107 0 -0.707107 -0.707107 
0 -0.707107 -0.707107 0 -0.707107 -0.707107 0 -0.707107 -0.707107 
0 -0.707107 -0.707107 0.0172439 -0.707002 -0.707002 0.0172439 -0.707002 -0.707002 
0.707002 -0.707002 -0.0172439 -0.024383 -0.999703 0 -0.707107 -0.707107 0 
0 -1 0 -0.698324 -0.715782 0 0.698324 -0.715782 0 
0 -1 0 0.0243757 -0.999406 0.0243757 0.715673 -0.0174554 0.698217 
0.707002 -0.0172439 0.707002 -0.707107 -0.707107 0 -0.999703 -0.024383 0 
0.586853 -0.57254 0.57254 0.582044 -0.567847 0.582044 -0.999703 0 -0.024383 
-0.707107 0 -0.707107 0.582044 -0.582044 0.567847 0.999703 -0.024383 0 
-0.586853 -0.57254 -0.57254 0.57735 0.57735 -0.57735 0.999406 0.0243757 -0.0243757 
-0.586733 -0.586733 -0.558112 -0.999406 -0.0243757 0.0243757 0.586853 0.57254 -0.57254 
0.57254 0.586853 -0.57254 0.0172439 0.707002 -0.707002 -0.999703 0 0.024383 
0.715782 0 -0.698324 -0.999703 0 0.024383 0.715782 0 -0.698324 
-0.999703 0 0.024383 0.715782 0 -0.698324 -0.999703 0 0.024383 
0.715673 0.0174554 -0.698217 -0.999703 0 0.024383 0.582044 0.582044 -0.567847 
0.582044 0.582044 -0.567847 -0.999406 0.0243757 0.0243757 0.582044 0.582044 0.567847 
0.57735 0.57735 0.57735 0.57254 0.586853 0.57254 0 1 0 
0 1 0 0 1 0 0 1 0 
0.024383 0.999703 0 -0.0172439 0.707002 0.707002 -0.0174554 0.715673 0.698217 
0 0.707107 0.707107 0 0.715782 0.698324 0 0.707107 0.707107 
0 0.715782 0.698324 0 0.707107 0.707107 0 0.715782 0.698324 
0 0.707107 0.707107 0 0.715782 0.698324 0 0.707107 0.707107 
0 0.715782 0.698324 0.0172439 0.707002 0.707002 0.0174554 0.715673 0.698217 
-0.0172439 -0.707002 -0.707002 -0.0243757 -0.999406 -0.0243757 -0.707002 -0.707002 -0.0172439 
0 -0.707107 -0.707107 0 -0.999703 -0.024383 0 -0.707107 -0.707107 
0 -0.999703 -0.024383 0 -0.707107 -0.707107 0 -0.999703 -0.024383 
0 -0.707107 -0.707107 0 -0.999703 -0.024383 0.0174554 -0.715673 -0.698217 
0.024383 -0.999703 0 0.999703 -0.024383 0 -0.707107 -0.707107 0 
-0.707107 -0.707107 0 0.715782 -0.698324 0 -0.024383 -0.999703 0 
-0.582044 -0.582044 -0.567847 0 -1 0 -0.698324 -0.715782 0 
0.698324 -0.715782 0 0.0243757 -0.999406 0.0243757 0.707002 -0.0172439 0.707002 
0.707002 -0.0172439 0.707002 -0.582044 -0.582044 -0.567847 -0.582044 -0.582044 -0.567847 
0.582044 -0.567847 0.582044 0.586853 -0.57254 0.57254 -0.707002 -0.0172439 -0.707002 
-0.57735 -0.57735 -0.57735 -0.999406 -0.0243757 -0.0243757 0.57254 -0.586853 0.57254 
0.0243757 -0.999406 0.0243757 0.999406 -0.0243757 0.0243757 -0.586733 -0.558112 -0.586733 
-0.999406 0.0243757 -0.0243757 0.999703 0 0.024383 -0.0176694 0.689106 0.724445 
-0.0176694 0.724445 0.689106 -0.57254 0.57254 0.586853 -0.57254 0.586853 0.57254 
-0.586853 0.57254 0.57254 0.57254 0.57254 -0.586853 0.0174554 0.698217 -0.715673 
0.999703 0 -0.024383 -0.0243757 -0.0243757 -0.999406 -0.0243757 -0.999406 -0.0243757 
-0.707002 -0.707002 -0.0172439 0.0249844 -0.0249844 -0.999376 0.024383 -0.999703 0 
0.999703 -0.024383 0 -0.024383 0 0.999703 -0.698324 0 0.715782 
-0.715782 0 0.698324 0.698324 0 -0.715782 0.024383 0 -0.999703 
0.0249844 -0.999376 -0.0249844 -0.0243757 -0.0243757 -0.999406 -0.707002 -0.707002 -0.0172439 
-0.0243757 -0.999406 -0.0243757 0 0 -1 0.0249922 0 -0.999688 
1 0 0 -0.024383 0 0.999703 -0.698324 0 0.715782 
-0.715782 0 0.698324 0.698324 0 -0.715782 0 0 -1 
0 -0.999703 -0.024383 0 -0.024383 -0.999703 0 0 -1 
0 0 -1 0.0249844 0.0249844 -0.999376 0.999703 0.024383 0 
-0.024383 0 0.999703 -0.698324 0 0.715782 -0.715782 0 0.698324 
0.698324 0 -0.715782 0 0 -1 0 0.0249922 -0.999688 
0 0.0249922 -0.999688 0.0249844 0.0249844 -0.999376 0.707107 0.707107 0 
0.707107 0.707107 0 -0.024383 0 0.999703 -0.698324 0 0.715782 
-0.715782 0 0.698324 0.698324 0 -0.715782 0.0249844 0.0249844 -0.999376 