# vtk DataFile Version 3.0
vtk output
ASCII
DATASET POLYDATA
POINTS 4456 float
50 64 92.0154 50 63.0154 93 49.0154 64 93 
50.9846 64 93 50 65 92.0154 49.0154 65 93 
50.9846 65 93 50 66 92.0154 49.0154 66 93 
50.9846 66 93 50 67 92.0154 49.0154 67 93 
50.9846 67 93 50 68 92.0154 49.0154 68 93 
50.9846 68 93 50 69 92.0154 49.0154 69 93 
50.9846 69 93 50 70 92.0154 49.0154 70 93 
50.9846 70 93 50 71 92.0154 49.0154 71 93 
50.9846 71 93 50 72 92.0154 49.0154 72 93 
50.9846 72 93 50 73 92.0154 49.0154 73 93 
50.9846 73 93 50 74 92.0154 49.0154 74 93 
50.9846 74 93 46 75 92.0154 46 74.0154 93 
45.0154 75 93 47 75 92.0154 47 74.0154 93 
48 75 92.0154 48 74.0154 93 48.9846 75 93 
50 74.9846 93 46 76 92.0154 45.0154 76 93 
46.9846 76 93 47 75.9846 93 48 75.9846 93 
45 77 92.0154 45 76.0154 93 44.0154 77 93 
46 76.9846 93 45.9846 77 93 45 77.9846 93 
33 58 93.0154 33 57.0154 94 32.0154 58 94 
34 58 93.0154 34 57.0154 94 34.9846 58 94 
33 59 93.0154 32.0154 59 94 33.9846 59 94 
34 58.9846 94 33 59.9846 94 31 62 93.0154 
31 61.0154 94 30.0154 62 94 32 62 93.0154 
32 61.0154 94 32.9846 62 94 31 63 93.0154 
30.0154 63 94 31.9846 63 94 32 62.9846 94 
50 63 93.0154 50 62.0154 94 49.0154 63 94 
50.9846 63 94 31 63.9846 94 49 64 93.0154 
49 63.0154 94 48.0154 64 94 51 64 93.0154 
51 63.0154 94 52 64 93.0154 52 63.0154 94 
52.9846 64 94 49 65 93.0154 48.0154 65 94 
51 65 93.0154 52 65 93.0154 52.9846 65 94 
49 66 93.0154 48.0154 66 94 51 66 93.0154 
52 66 93.0154 52.9846 66 94 49 67 93.0154 
48.0154 67 94 51 67 93.0154 52 67 93.0154 
52.9846 67 94 29 68 93.0154 29 67.0154 94 
28.0154 68 94 30 68 93.0154 30 67.0154 94 
30.9846 68 94 49 68 93.0154 48.0154 68 94 
51 68 93.0154 52 68 93.0154 52.9846 68 94 
29 69 93.0154 28.0154 69 94 29.9846 69 94 
30 68.9846 94 48 69 93.0154 48 68.0154 94 
47.0154 69 94 49 69 93.0154 51 69 93.0154 
52 69 93.0154 52.9846 69 94 29 69.9846 94 
47 70 93.0154 47 69.0154 94 46.0154 70 94 
48 70 93.0154 49 70 93.0154 51 70 93.0154 
52 70 93.0154 52.9846 70 94 46 71 93.0154 
46 70.0154 94 45.0154 71 94 47 71 93.0154 
48 71 93.0154 49 71 93.0154 51 71 93.0154 
52 71 93.0154 52.9846 71 94 45 72 93.0154 
45 71.0154 94 44.0154 72 94 46 72 93.0154 
47 72 93.0154 48 72 93.0154 49 72 93.0154 
51 72 93.0154 52 72 93.0154 52.9846 72 94 
45 73 93.0154 44.0154 73 94 46 73 93.0154 
47 73 93.0154 48 73 93.0154 49 73 93.0154 
51 73 93.0154 52 73 93.0154 52.9846 73 94 
45 74 93.0154 44.0154 74 94 46 74 93.0154 
47 74 93.0154 48 74 93.0154 49 74 93.0154 
51 74 93.0154 52 74 93.0154 52.9846 74 94 
45 75 93.0154 44.0154 75 94 49 75 93.0154 
50 75 93.0154 51 75 93.0154 51.9846 75 94 
52 74.9846 94 45 76 93.0154 44.0154 76 94 
47 76 93.0154 48 76 93.0154 48.9846 76 94 
49 75.9846 94 50 75.9846 94 51 75.9846 94 
44.0154 77 94 46 77 93.0154 47 77 93.0154 
47.9846 77 94 48 76.9846 94 45 78 93.0154 
44.0154 78 94 46 78 93.0154 46.9846 78 94 
47 77.9846 94 45 79 93.0154 44.0154 79 94 
45.9846 79 94 46 78.9846 94 45 79.9846 94 
34 57 94.0154 34 56.0154 95 33.0154 57 95 
34.9846 57 95 33 57.0154 95 32.0154 58 95 
34.9846 58 95 32.0154 59 95 34 59 94.0154 
34.9846 59 95 33 59.9846 95 34 59.9846 95 
32 61 94.0154 32 60.0154 95 31.0154 61 95 
32.9846 61 95 31 61.0154 95 30.0154 62 95 
32.9846 62 95 30.0154 63 95 32 63 94.0154 
32.9846 63 95 48 63 94.0154 48 62.0154 95 
47.0154 63 95 49 63 94.0154 49 62.0154 95 
50 62.0154 95 50.9846 63 95 31 63.9846 95 
32 63.9846 95 48 64 94.0154 47.0154 64 95 
51 63.0154 95 52 63.0154 95 52.9846 64 95 
48 65 94.0154 47.0154 65 95 52.9846 65 95 
48 66 94.0154 47.0154 66 95 52.9846 66 95 
30 67 94.0154 30 66.0154 95 29.0154 67 95 
30.9846 67 95 48 67 94.0154 47.0154 67 95 
52.9846 67 95 29 67.0154 95 28.0154 68 95 
30.9846 68 95 48 68 94.0154 47.0154 68 95 
52.9846 68 95 28.0154 69 95 30 69 94.0154 
30.9846 69 95 46 69 94.0154 46 68.0154 95 
45.0154 69 95 47 69 94.0154 47 68.0154 95 
52.9846 69 95 29 69.9846 95 30 69.9846 95 
46 70 94.0154 45.0154 70 95 52.9846 70 95 
44 71 94.0154 44 70.0154 95 43.0154 71 95 
45 71 94.0154 45 70.0154 95 52.9846 71 95 
44 72 94.0154 43.0154 72 95 52.9846 72 95 
44 73 94.0154 43.0154 73 95 52.9846 73 95 
44 74 94.0154 43.0154 74 95 52.9846 74 95 
44 75 94.0154 43.0154 75 95 51.9846 75 95 
52 74.9846 95 44 76 94.0154 43.0154 76 95 
48.9846 76 95 49 75.9846 95 50 75.9846 95 
51 75.9846 95 44 77 94.0154 43.0154 77 95 
47.9846 77 95 48 76.9846 95 44 78 94.0154 
43.0154 78 95 46.9846 78 95 47 77.9846 95 
44 78.9846 95 44.0154 79 95 45.9846 79 95 
46 78.9846 95 45 79.9846 95 41 50 95.0154 
41 49.0154 96 40.0154 50 96 42 50 95.0154 
42 49.0154 96 42.9846 50 96 41 51 95.0154 
40.0154 51 96 41.9846 51 96 42 50.9846 96 
41 51.9846 96 40 53 95.0154 40 52.0154 96 
39.0154 53 96 40.9846 53 96 39 54 95.0154 
39 53.0154 96 38.0154 54 96 40 54 95.0154 
41 53.0154 96 41 54 95.0154 42 54 95.0154 
42 53.0154 96 42.9846 54 96 38 55 95.0154 
38 54.0154 96 37.0154 55 96 39 55 95.0154 
40 55 95.0154 41 55 95.0154 42 55 95.0154 
42.9846 55 96 35 56 95.0154 35 55.0154 96 
34.0154 56 96 36 56 95.0154 36 55.0154 96 
37 56 95.0154 37 55.0154 96 38 56 95.0154 
39 56 95.0154 40 56 95.0154 41 56 95.0154 
42 56 95.0154 43 55.0154 96 43 56 95.0154 
44 56 95.0154 44 55.0154 96 44.9846 56 96 
34 56.0154 96 33.0154 57 96 35 57 95.0154 
36 57 95.0154 37 57 95.0154 38 57 95.0154 
39 57 95.0154 40 57 95.0154 41 57 95.0154 
42 57 95.0154 43 57 95.0154 44 57 95.0154 
44.9846 57 96 33 57.0154 96 32.0154 58 96 
35 58 95.0154 36 58 95.0154 37 58 95.0154 
38 58 95.0154 39 58 95.0154 40 58 95.0154 
41 58 95.0154 42 58 95.0154 43 58 95.0154 
44 58 95.0154 44.9846 58 96 32.0154 59 96 
35 59 95.0154 36 59 95.0154 37 59 95.0154 
38 59 95.0154 39 59 95.0154 40 59 95.0154 
41 59 95.0154 42 59 95.0154 43 59 95.0154 
44 59 95.0154 44.9846 59 96 33 60 95.0154 
32.0154 60 96 34 60 95.0154 35 60 95.0154 
36 60 95.0154 37 60 95.0154 38 60 95.0154 
39 60 95.0154 40 60 95.0154 41 60 95.0154 
42 60 95.0154 43 60 95.0154 44 60 95.0154 
45 59.0154 96 45 60 95.0154 46 60 95.0154 
46 59.0154 96 46.9846 60 96 32 60.0154 96 
31.0154 61 96 33 61 95.0154 34 61 95.0154 
35 61 95.0154 36 61 95.0154 37 61 95.0154 
38 61 95.0154 39 61 95.0154 40 61 95.0154 
41 61 95.0154 42 61 95.0154 43 61 95.0154 
44 61 95.0154 45 61 95.0154 46 61 95.0154 
46.9846 61 96 31 61.0154 96 30.0154 62 96 
33 62 95.0154 34 62 95.0154 35 62 95.0154 
36 62 95.0154 37 62 95.0154 38 62 95.0154 
39 62 95.0154 40 62 95.0154 41 62 95.0154 
42 62 95.0154 43 62 95.0154 44 62 95.0154 
45 62 95.0154 46 62 95.0154 47 61.0154 96 
47 62 95.0154 48 62 95.0154 48 61.0154 96 
48.9846 62 96 30.0154 63 96 33 63 95.0154 
34 63 95.0154 35 63 95.0154 36 63 95.0154 
37 63 95.0154 38 63 95.0154 39 63 95.0154 
40 63 95.0154 41 63 95.0154 42 63 95.0154 
43 63 95.0154 44 63 95.0154 45 63 95.0154 
46 63 95.0154 47 63 95.0154 48.9846 63 96 
49 63 95.9846 50 63 95.9846 31 64 95.0154 
30.0154 64 96 32 64 95.0154 33 64 95.0154 
34 64 95.0154 35 64 95.0154 36 64 95.0154 
37 64 95.0154 38 64 95.0154 39 64 95.0154 
40 64 95.0154 41 64 95.0154 42 64 95.0154 
43 64 95.0154 44 64 95.0154 45 64 95.0154 
46 64 95.0154 47 64 95.0154 49 63.0154 96 
50 63.0154 96 51 63.0154 96 52 63.0154 96 
52.9846 64 96 31 65 95.0154 30.0154 65 96 
32 65 95.0154 33 65 95.0154 34 65 95.0154 
35 65 95.0154 36 65 95.0154 37 65 95.0154 
38 65 95.0154 39 65 95.0154 40 65 95.0154 
41 65 95.0154 42 65 95.0154 43 65 95.0154 
44 65 95.0154 45 65 95.0154 46 65 95.0154 
47 65 95.0154 52.9846 65 96 31 66 95.0154 
30.0154 66 96 32 66 95.0154 33 66 95.0154 
34 66 95.0154 35 66 95.0154 36 66 95.0154 
37 66 95.0154 38 66 95.0154 39 66 95.0154 
40 66 95.0154 41 66 95.0154 42 66 95.0154 
43 66 95.0154 44 66 95.0154 45 66 95.0154 
46 66 95.0154 47 66 95.0154 52.9846 66 96 
30 66.0154 96 29.0154 67 96 31 67 95.0154 
32 67 95.0154 33 67 95.0154 34 67 95.0154 
35 67 95.0154 36 67 95.0154 37 67 95.0154 
38 67 95.0154 39 67 95.0154 40 67 95.0154 
41 67 95.0154 42 67 95.0154 43 67 95.0154 
44 67 95.0154 45 67 95.0154 46 67 95.0154 
47 67 95.0154 52.9846 67 96 29 67.0154 96 
28.0154 68 96 31 68 95.0154 32 68 95.0154 
33 68 95.0154 34 68 95.0154 35 68 95.0154 
36 68 95.0154 37 68 95.0154 38 68 95.0154 
39 68 95.0154 40 68 95.0154 41 68 95.0154 
42 68 95.0154 43 68 95.0154 44 68 95.0154 
45 68 95.0154 46 68 95.0154 47 68 95.0154 
52.9846 68 96 28.0154 69 96 31 69 95.0154 
32 69 95.0154 33 69 95.0154 34 69 95.0154 
35 69 95.0154 36 69 95.0154 37 69 95.0154 
38 69 95.0154 39 69 95.0154 40 69 95.0154 
41 69 95.0154 42 69 95.0154 43 69 95.0154 
44 69 95.0154 45 69 95.0154 52.9846 69 96 
29 69.9846 96 30 69.9846 96 31 69.9846 96 
32 69.9846 96 32.0154 70 96 33 70 95.0154 
34 70 95.0154 35 70 95.0154 36 70 95.0154 
37 70 95.0154 38 70 95.0154 39 70 95.0154 
40 70 95.0154 41 70 95.0154 42 70 95.0154 
43 70 95.0154 44 70 95.0154 45 70 95.0154 
52.9846 70 96 33 71 95.0154 32.0154 71 96 
34 71 95.0154 35 71 95.0154 36 71 95.0154 
37 71 95.0154 38 71 95.0154 39 71 95.0154 
40 71 95.0154 41 71 95.0154 42 71 95.0154 
43 71 95.0154 52.9846 71 96 33 71.9846 96 
34 71.9846 96 34.0154 72 96 35 72 95.0154 
36 72 95.0154 37 72 95.0154 38 72 95.0154 
39 72 95.0154 40 72 95.0154 41 72 95.0154 
42 72 95.0154 43 72 95.0154 52.9846 72 96 
35 73 95.0154 34.0154 73 96 36 73 95.0154 
37 73 95.0154 38 73 95.0154 39 73 95.0154 
40 73 95.0154 41 73 95.0154 42 73 95.0154 
43 73 95.0154 52.9846 73 96 35 73.9846 96 
36 73.9846 96 37 73.9846 96 38 73.9846 96 
38.0154 74 96 39 74 95.0154 40 74 95.0154 
41 74 95.0154 42 74 95.0154 43 74 95.0154 
52.9846 74 96 39 75 95.0154 38.0154 75 96 
40 75 95.0154 41 75 95.0154 42 75 95.0154 
43 75 95.0154 51.9846 75 96 52 74.9846 96 
39 75.9846 96 40 75.9846 96 41 75.9846 96 
42 75.9846 96 42.0154 76 96 43 76 95.0154 
48.9846 76 96 49 75.9846 96 50 75.9846 96 
51 75.9846 96 43 77 95.0154 42.0154 77 96 
47.9846 77 96 48 76.9846 96 43 77.9846 96 
44 77.9846 96 44 78 95.9846 44.0154 78 96 
46.9846 78 96 47 77.9846 96 44.0154 79 96 
45.9846 79 96 46 78.9846 96 45 79.9846 96 
42 49 96.0154 42 48.0154 97 41.0154 49 97 
[...]
POINT_DATA 4456
SCALARS scalars float
LOOKUP_TABLE default
1 1 1 1 1 1 1 1 1 
1 1 1 1 1 1 1 1 1 
1 1 1 1 1 1 1 1 1 
1 1 1 1 1 1 1 1 1 
1 1 1 1 1 1 1 1 1 
1 1 1 1 1 1 1 1 1 
1 1 1 1 1 1 1 1 1 
1 1 1 1 1 1 1 1 1 
1 1 1 1 1 1 1 1 1 
1 1 1 1 1 1 1 1 1 
1 1 1 1 1 1 1 1 1 
1 1 1 1 1 1 1 1 1 
1 1 1 1 1 1 1 1 1 
1 1 1 1 1 1 1 1 1 
1 1 1 1 1 1 1 1 1 
1 1 1 1 1 1 1 1 1 
1 1 1 1 1 1 1 1 1 
1 1 1 1 1 1 1 1 1 
1 1 1 1 1 1 1 1 1 
1 1 1 1 1 1 1 1 1 
1 1 1 1 1 1 1 1 1 
1 1 1 1 1 1 1 1 1 
1 1 1 1 1 1 1 1 1 
1 1 1 1 1 1 1 1 1 
1 1 1 1 1 1 1 1 1 
1 1 1 1 1 1 1 1 1 
1 1 1 1 1 1 1 1 1 
1 1 1 1 1 1 1 1 1 
1 1 1 1 1 1 1 1 1 
1 1 1 1 1 1 1 1 1 
1 1 1 1 1 1 1 1 1 
1 1 1 1 1 1 1 1 1 
1 1 1 1 1 1 1 1 1 
1 1 1 1 1 1 1 1 1 
1 1 1 1 1 1 1 1 1 
1 1 1 1 1 1 1 1 1 
1 1 1 1 1 1 1 1 1 
1 1 1 1 1 1 1 1 1 
1 1 1 1 1 1 1 1 1 
1 1 1 1 1 1 1 1 1 
1 1 1 1 1 1 1 1 1 
1 1 1 1 1 1 1 1 1 
1 1 1 1 1 1 1 1 1 
1 1 1 1 1 1 1 1 1 
1 1 1 1 1 1 1 1 1 
1 1 1 1 1 1 1 1 1 
1 1 1 1 1 1 1 1 1 
1 1 1 1 1 1 1 1 1 
1 1 1 1 1 1 1 1 1 
1 1 1 1 1 1 1 1 1 
1 1 1 1 1 1 1 1 1 
1 1 1 1 1 1 1 1 1 
1 1 1 1 1 1 1 1 1 
1 1 1 1 1 1 1 1 1 
1 1 1 1 1 1 1 1 1 
1 1 1 1 1 1 1 1 1 
1 1 1 1 1 1 1 1 1 
1 1 1 1 1 1 1 1 1 
1 1 1 1 1 1 1 1 1 
1 1 1 1 1 1 1 1 1 
1 1 1 1 1 1 1 1 1 
1 1 1 1 1 1 1 1 1 
1 1 1 1 1 1 1 1 1 
1 1 1 1 1 1 1 1 1 
1 1 1 1 1 1 1 1 1 
1 1 1 1 1 1 1 1 1 
1 1 1 1 1 1 1 1 1 
1 1 1 1 1 1 1 1 1 
1 1 1 1 1 1 1 1 1 
1 1 1 1 1 1 1 1 1 
1 1 1 1 1 1 1 1 1 
1 1 1 1 1 1 1 1 1 
1 1 1 1 1 1 1 1 1 
1 1 1 1 1 1 1 1 1 
1 1 1 1 1 1 1 1 1 
1 1 1 1 1 1 1 1 1 
1 1 1 1 1 1 1 1 1 
1 1 1 1 1 1 1 1 1 
1 1 1 1 1 1 1 1 1 
1 1 1 1 1 1 1 1 1 
1 1 1 1 1 1 1 1 1 
1 1 1 1 1 1 1 1 1 
1 1 1 1 1 1 1 1 1 
1 1 1 1 1 1 1 1 1 
1 1 1 1 1 1 1 1 1 
1 1 1 1 1 1 1 1 1 
1 1 1 1 1 1 1 1 1 
1 1 1 1 1 1 1 1 1 
1 1 1 1 1 1 1 1 1 
1 1 1 1 1 1 1 1 1 
1 1 1 1 1 1 1 1 1 
1 1 1 1 1 1 1 1 1 
1 1 1 1 1 1 1 1 1 
1 1 1 1 1 1 1 1 1 
1 1 1 1 1 1 1 1 1 
1 1 1 1 1 1 1 1 1 
1 1 1 1 1 1 1 1 1 
1 1 1 1 1 1 1 1 1 
1 1 1 1 1 1 1 1 1 
1 1 1 1 1 1 1 1 1 
1 1 1 1 1 1 1 1 1 
1 1 1 1 1 1 1 1 1 
1 1 1 1 1 1 1 1 1 
1 1 1 1 1 1 1 1 1 
1 1 1 1 1 1 1 1 1 
1 1 1 1 1 1 1 1 1 
1 1 1 1 1 1 1 1 1 
1 1 1 1 1 1 1 1 1 
1 1 1 1 1 1 1 1 1 
1 1 1 1 1 1 1 1 1 
1 1 1 1 1 1 1 1 1 
1 1 1 1 1 1 1 1 1 
1 1 1 1 1 1 1 1 1 
1 1 1 1 1 1 1 1 1 
1 1 1 1 1 1 1 1 1 
1 1 1 1 1 1 1 1 1 
1 1 1 1 1 1 1 1 1 
1 1 1 1 1 1 1 1 1 
1 1 1 1 1 1 1 1 1 
1 1 1 1 1 1 1 1 1 
1 1 1 1 1 1 1 1 1 
1 1 1 1 1 1 1 1 1 
1 1 1 1 1 1 1 1 1 
1 1 1 1 1 1 1 1 1 
1 1 1 1 1 1 1 1 1 
1 1 1 1 1 1 1 1 1 
1 1 1 1 1 1 1 1 1 
1 1 1 1 1 1 1 1 1 
1 1 1 1 1 1 1 1 1 
1 1 1 1 1 1 1 1 1 
1 1 1 1 1 1 1 1 1 
1 1 1 1 1 1 1 1 1 
1 1 1 1 1 1 1 1 1 
1 1 1 1 1 1 1 1 1 
1 1 1 1 1 1 1 1 1 
1 1 1 1 1 1 1 1 1 
1 1 1 1 1 1 1 1 1 
1 1 1 1 1 1 1 1 1 
1 1 1 1 1 1 1 1 1 
1 1 1 1 1 1 1 1 1 
1 1 1 1 1 1 1 1 1 
1 1 1 1 1 1 1 1 1 
1 1 1 1 1 1 1 1 1 
1 1 1 1 1 1 1 1 1 
1 1 1 1 1 1 1 1 1 
1 1 1 1 1 1 1 1 1 
1 1 1 1 1 1 1 1 1 
1 1 1 1 1 1 1 1 1 
1 1 1 1 1 1 1 1 1 
1 1 1 1 1 1 1 1 1 
1 1 1 1 1 1 1 1 1 
1 1 1 1 1 1 1 1 1 
1 1 1 1 1 1 1 1 1 
1 1 1 1 1 1 1 1 1 
1 1 1 1 1 1 1 1 1 
1 1 1 1 1 1 1 1 1 
1 1 1 1 1 1 1 1 1 
1 1 1 1 1 1 1 1 1 
1 1 1 1 1 1 1 1 1 
1 1 1 1 1 1 1 1 1 
1 1 1 1 1 1 1 1 1 
1 1 1 1 1 1 1 1 1 
1 1 1 1 1 1 1 1 1 
1 1 1 1 1 1 1 1 1 
1 1 1 1 1 1 1 1 1 
1 1 1 1 1 1 1 1 1 
1 1 1 1 1 1 1 1 1 
1 1 1 1 1 1 1 1 1 
1 1 1 1 1 1 1 1 1 
1 1 1 1 1 1 1 1 1 
1 1 1 1 1 1 1 1 1 
1 1 1 1 1 1 1 1 1 
1 1 1 1 1 1 1 1 1 
1 1 1 1 1 1 1 1 1 
1 1 1 1 1 1 1 1 1 
1 1 1 1 1 1 1 1 1 
1 1 1 1 1 1 1 1 1 
1 1 1 1 1 1 1 1 1 
1 1 1 1 1 1 1 1 1 
1 1 1 1 1 1 1 1 1 
1 1 1 1 1 1 1 1 1 
1 1 1 1 1 1 1 1 1 
1 1 1 1 1 1 1 1 1 
1 1 1 1 1 1 1 1 1 
1 1 1 1 1 1 1 1 1 
1 1 1 1 1 1 1 1 1 
1 1 1 1 1 1 1 1 1 
1 1 1 1 1 1 1 1 1 
1 1 1 1 1 1 1 1 1 
1 1 1 1 1 1 1 1 1 
1 1 1 1 1 1 1 1 1 
1 1 1 1 1 1 1 1 1 
1 1 1 1 1 1 1 1 1 
1 1 1 1 1 1 1 1 1 
1 1 1 1 1 1 1 1 1 
1 1 1 1 1 1 1 1 1 
1 1 1 1 1 1 1 1 1 
1 1 1 1 1 1 1 1 1 
1 1 1 1 1 1 1 1 1 
1 1 1 1 1 1 1 1 1 
1 1 1 1 1 1 1 1 1 
1 1 1 1 1 1 1 1 1 
1 1 1 1 1 1 1 1 1 
1 1 1 1 1 1 1 1 1 
1 1 1 1 1 1 1 1 1 
1 1 1 1 1 1 1 1 1 
1 1 1 1 1 1 1 1 1 
1 1 1 1 1 1 1 1 1 
1 1 1 1 1 1 1 1 1 
1 1 1 1 1 1 1 1 1 
1 1 1 1 1 1 1 1 1 
1 1 1 1 1 1 1 1 1 
1 1 1 1 1 1 1 1 1 
1 1 1 1 1 1 1 1 1 
1 1 1 1 1 1 1 1 1 
1 1 1 1 1 1 1 1 1 
1 1 1 1 1 1 1 1 1 
1 1 1 1 1 1 1 1 1 
1 1 1 1 1 1 1 1 1 
1 1 1 1 1 1 1 1 1 
1 1 1 1 1 1 1 1 1 
1 1 1 1 1 1 1 1 1 
1 1 1 1 1 1 1 1 1 
1 1 1 1 1 1 1 1 1 
1 1 1 1 1 1 1 1 1 
1 1 1 1 1 1 1 1 1 
1 1 1 1 1 1 1 1 1 
1 1 1 1 1 1 1 1 1 
1 1 1 1 1 1 1 1 1 
1 1 1 1 1 1 1 1 1 
1 1 1 1 1 1 1 1 1 
1 1 1 1 1 1 1 1 1 
1 1 1 1 1 1 1 1 1 
1 1 1 1 1 1 1 1 1 
1 1 1 1 1 1 1 1 1 
1 1 1 1 1 1 1 1 1 
1 1 1 1 1 1 1 1 1 
1 1 1 1 1 1 1 1 1 
1 1 1 1 1 1 1 1 1 
1 1 1 1 1 1 1 1 1 
1 1 1 1 1 1 1 1 1 
1 1 1 1 1 1 1 1 1 
1 1 1 1 1 1 1 1 1 
1 1 1 1 1 1 1 1 1 
1 1 1 1 1 1 1 1 1 
1 1 1 1 1 1 1 1 1 
1 1 1 1 1 1 1 1 1 
1 1 1 1 1 1 1 1 1 
1 1 1 1 1 1 1 1 1 
1 1 1 1 1 1 1 1 1 
1 1 1 1 1 1 1 1 1 
1 1 1 1 1 1 1 1 1 
1 1 1 1 1 1 1 1 1 
1 1 1 1 1 1 1 1 1 
1 1 1 1 1 1 1 1 1 
1 1 1 1 1 1 1 1 1 
1 1 1 1 1 1 1 1 1 
1 1 1 1 1 1 1 1 1 
1 1 1 1 1 1 1 1 1 
1 1 1 1 1 1 1 1 1 
1 1 1 1 1 1 1 1 1 
1 1 1 1 1 1 1 1 1 
1 1 1 1 1 1 1 1 1 
1 1 1 1 1 1 1 1 1 
1 1 1 1 1 1 1 1 1 
1 1 1 1 1 1 1 1 1 
1 1 1 1 1 1 1 1 1 
1 1 1 1 1 1 1 1 1 
1 1 1 1 1 1 1 1 1 
1 1 1 1 1 1 1 1 1 
1 1 1 1 1 1 1 1 1 
1 1 1 1 1 1 1 1 1 
1 1 1 1 1 1 1 1 1 
1 1 1 1 1 1 1 1 1 
1 1 1 1 1 1 1 1 1 
1 1 1 1 1 1 1 1 1 
1 1 1 1 1 1 1 1 1 
1 1 1 1 1 1 1 1 1 
1 1 1 1 1 1 1 1 1 
1 1 1 1 1 1 1 1 1 
1 1 1 1 1 1 1 1 1 
1 1 1 1 1 1 1 1 1 
1 1 1 1 1 1 1 1 1 
1 1 1 1 1 1 1 1 1 
1 1 1 1 1 1 1 1 1 
1 1 1 1 1 1 1 1 1 
1 1 1 1 1 1 1 1 1 
1 1 1 1 1 1 1 1 1 
1 1 1 1 1 1 1 1 1 
1 1 1 1 1 1 1 1 1 
1 1 1 1 1 1 1 1 1 
1 1 1 1 1 1 1 1 1 
1 1 1 1 1 1 1 1 1 
1 1 1 1 1 1 1 1 1 
1 1 1 1 1 1 1 1 1 
1 1 1 1 1 1 1 1 1 
1 1 1 1 1 1 1 1 1 
1 1 1 1 1 1 1 1 1 
1 1 1 1 1 1 1 1 1 
1 1 1 1 1 1 1 1 1 
1 1 1 1 1 1 1 1 1 
1 1 1 1 1 1 1 1 1 
1 1 1 1 1 1 1 1 1 
1 1 1 1 1 1 1 1 1 
1 1 1 1 1 1 1 1 1 
1 1 1 1 1 1 1 1 1 
1 1 1 1 1 1 1 1 1 
1 1 1 1 1 1 1 1 1 
1 1 1 1 1 1 1 1 1 
1 1 1 1 1 1 1 1 1 
1 1 1 1 1 1 1 1 1 
1 1 1 1 1 1 1 1 1 
1 1 1 1 1 1 1 1 1 
1 1 1 1 1 1 1 1 1 
1 1 1 1 1 1 1 1 1 
1 1 1 1 1 1 1 1 1 
1 1 1 1 1 1 1 1 1 
1 1 1 1 1 1 1 1 1 
1 1 1 1 1 1 1 1 1 
1 1 1 1 1 1 1 1 1 
1 1 1 1 1 1 1 1 1 
1 1 1 1 1 1 1 1 1 
1 1 1 1 1 1 1 1 1 
1 1 1 1 1 1 1 1 1 
1 1 1 1 1 1 1 1 1 
1 1 1 1 1 1 1 1 1 
1 1 1 1 1 1 1 1 1 
1 1 1 1 1 1 1 1 1 
1 1 1 1 1 1 1 1 1 
1 1 1 1 1 1 1 1 1 
1 1 1 1 1 1 1 1 1 
1 1 1 1 1 1 1 1 1 
1 1 1 1 1 1 1 1 1 
1 1 1 1 1 1 1 1 1 
1 1 1 1 1 1 1 1 1 
1 1 1 1 1 1 1 1 1 
1 1 1 1 1 1 1 1 1 
1 1 1 1 1 1 1 1 1 
1 1 1 1 1 1 1 1 1 
1 1 1 1 1 1 1 1 1 
1 1 1 1 1 1 1 1 1 
1 1 1 1 1 1 1 1 1 
1 1 1 1 1 1 1 1 1 
1 1 1 1 1 1 1 1 1 
1 1 1 1 1 1 1 1 1 
1 1 1 1 1 1 1 1 1 
1 1 1 1 1 1 1 1 1 
1 1 1 1 1 1 1 1 1 
1 1 1 1 1 1 1 1 1 
1 1 1 1 1 1 1 1 1 
1 1 1 1 1 1 1 1 1 
1 1 1 1 1 1 1 1 1 
1 1 1 1 1 1 1 1 1 
1 1 1 1 1 1 1 1 1 
1 1 1 1 1 1 1 1 1 
1 1 1 1 1 1 1 1 1 
1 1 1 1 1 1 1 1 1 
1 1 1 1 1 1 1 1 1 
1 1 1 1 1 1 1 1 1 
1 1 1 1 1 1 1 1 1 
1 1 1 1 1 1 1 1 1 
1 1 1 1 1 1 1 1 1 
1 1 1 1 1 1 1 1 1 
1 1 1 1 1 1 1 1 1 
1 1 1 1 1 1 1 1 1 
1 1 1 1 1 1 1 1 1 
1 1 1 1 1 1 1 1 1 
1 1 1 1 1 1 1 1 1 
1 1 1 1 1 1 1 1 1 
1 1 1 1 1 1 1 1 1 
1 1 1 1 1 1 1 1 1 
1 1 1 1 1 1 1 1 1 
1 1 1 1 1 1 1 1 1 
1 1 1 1 1 1 1 1 1 
1 1 1 1 1 1 1 1 1 
1 1 1 1 1 1 1 1 1 
1 1 1 1 1 1 1 1 1 
1 1 1 1 1 1 1 1 1 
1 1 1 1 1 1 1 1 1 
1 1 1 1 1 1 1 1 1 
1 1 1 1 1 1 1 1 1 
1 1 1 1 1 1 1 1 1 
1 1 1 1 1 1 1 1 1 
1 1 1 1 1 1 1 1 1 
1 1 1 1 1 1 1 1 1 
1 1 1 1 1 1 1 1 1 
1 1 1 1 1 1 1 1 1 
1 1 1 1 1 1 1 1 1 
1 1 1 1 1 1 1 1 1 
1 1 1 1 1 1 1 1 1 
1 1 1 1 1 1 1 1 1 
1 1 1 1 1 1 1 1 1 
1 1 1 1 1 1 1 1 1 
1 1 1 1 1 1 1 1 1 
1 1 1 1 1 1 1 1 1 
1 1 1 1 1 1 1 1 1 
1 1 1 1 1 1 1 1 1 
1 1 1 1 1 1 1 1 1 
1 1 1 1 1 1 1 1 1 
1 1 1 1 1 1 1 1 1 
1 1 1 1 1 1 1 1 1 
1 1 1 1 1 1 1 1 1 
1 1 1 1 1 1 1 1 1 
1 1 1 1 1 1 1 1 1 
1 1 1 1 1 1 1 1 1 
1 1 1 1 1 1 1 1 1 
1 1 1 1 1 1 1 1 1 
1 1 1 1 1 1 1 1 1 
1 1 1 1 1 1 1 1 1 
1 1 1 1 1 1 1 1 1 
1 1 1 1 1 1 1 1 1 
1 1 1 1 1 1 1 1 1 
1 1 1 1 1 1 1 1 1 
1 1 1 1 1 1 1 1 1 
1 1 1 1 1 1 1 1 1 
1 1 1 1 1 1 1 1 1 
1 1 1 1 1 1 1 1 1 
1 1 1 1 1 1 1 1 1 
1 1 1 1 1 1 1 1 1 
1 1 1 1 1 1 1 1 1 
1 1 1 1 1 1 1 1 1 
1 1 1 1 1 1 1 1 1 
1 1 1 1 1 1 1 1 1 
1 1 1 1 1 1 1 1 1 
1 1 1 1 1 1 1 1 1 
1 1 1 1 1 1 1 1 1 
1 1 1 1 1 1 1 1 1 
1 1 1 1 1 1 1 1 1 
1 1 1 1 1 1 1 1 1 
1 1 1 1 1 1 1 1 1 
1 1 1 1 1 1 1 1 1 
1 1 1 1 1 1 1 1 1 
1 1 1 1 1 1 1 1 1 
1 1 1 1 1 1 1 1 1 
1 1 1 1 1 1 1 1 1 
1 1 1 1 1 1 1 1 1 
1 1 1 1 1 1 1 1 1 
1 1 1 1 1 1 1 1 1 
1 1 1 1 1 1 1 1 1 
1 1 1 1 1 1 1 1 1 
1 1 1 1 1 1 1 1 1 
1 1 1 1 1 1 1 1 1 
1 1 1 1 1 1 1 1 1 
1 1 1 1 1 1 1 1 1 
1 1 1 1 1 1 1 1 1 
1 1 1 1 1 1 1 1 1 
1 1 1 1 1 1 1 1 1 
1 1 1 1 1 1 1 1 1 
1 1 1 1 1 1 1 1 1 
1 1 1 1 1 1 1 1 1 
1 1 1 1 1 1 1 1 1 
1 1 1 1 1 1 1 1 1 
1 1 1 1 1 1 1 1 1 
1 1 1 1 1 1 1 1 1 
1 1 1 1 1 1 1 1 1 
1 1 1 1 1 1 1 1 1 
1 1 1 1 1 1 1 1 1 
1 1 1 1 1 1 1 1 1 
1 1 1 1 1 1 1 1 1 
1 1 1 1 1 1 1 1 1 
1 1 1 1 1 1 1 1 1 
1 1 1 1 1 1 1 1 1 
1 1 1 1 1 1 1 1 1 
1 1 1 1 1 1 1 1 1 
1 1 1 1 1 1 1 1 1 
1 1 1 1 1 1 1 1 1 
1 1 1 1 1 1 1 1 1 
1 1 1 1 1 1 1 1 1 
1 1 1 1 1 1 1 1 1 
1 1 1 1 1 1 1 1 1 
1 1 1 1 1 1 1 1 1 
1 1 1 1 1 1 1 1 1 
1 1 1 1 1 1 1 1 1 
1 1 1 1 1 1 1 1 1 
1 1 1 1 1 1 1 1 1 
1 1 1 1 1 1 1 1 1 
1 1 1 1 1 1 1 1 1 
1 1 1 1 1 1 1 1 1 
1 1 1 1 1 1 1 1 1 
1 1 1 1 1 1 1 1 1 
1 1 1 1 1 1 1 1 1 
1 1 1 1 1 1 1 1 1 
1 1 1 1 1 1 1 1 1 
1 1 1 1 1 1 1 1 1 
1 1 1 1 1 1 1 1 1 
1 1 1 1 1 1 1 1 1 
1 1 1 1 1 1 1 1 1 
1 1 1 1 1 1 1 1 1 
1 1 1 1 1 1 1 1 1 
1 1 1 1 1 1 1 1 1 
1 1 1 1 1 1 1 1 1 
1 1 1 1 1 1 1 1 1 
1 1 1 1 1 1 1 1 1 
1 1 1 1 1 1 1 1 1 
1 1 1 1 1 1 1 1 1 
1 
NORMALS normals float
0 -0.0153828 -0.999882 0 -0.707107 -0.707107 -0.701562 -0.0109619 -0.712524 
0.701562 -0.0109619 -0.712524 0 0 -1 -0.701604 0 -0.712567 
0.701604 0 -0.712567 0 0 -1 -0.701604 0 -0.712567 
0.701604 0 -0.712567 0 0 -1 -0.701604 0 -0.712567 
0.701604 0 -0.712567 0 0 -1 -0.701604 0 -0.712567 
0.701604 0 -0.712567 0 0 -1 -0.701604 0 -0.712567 
0.701604 0 -0.712567 0 0 -1 -0.701604 0 -0.712567 
0.701604 0 -0.712567 0 0 -1 -0.701604 0 -0.712567 
0.701604 0 -0.712567 0 0 -1 -0.701604 0 -0.712567 
0.701604 0 -0.712567 0 0 -1 -0.701604 0 -0.712567 
0.701604 0 -0.712567 0 0.0153828 -0.999882 -0.701562 0.0109619 -0.712524 
0.701562 0.0109619 -0.712524 -0.015381 -0.015381 -0.999763 -0.0108779 -0.707065 -0.707065 
-0.707065 -0.0108779 -0.707065 0 0 -1 0 -0.701604 -0.712567 
0.0153828 0 -0.999882 0.0109619 -0.701562 -0.712524 0.707107 0 -0.707107 
0 0.707107 -0.707107 0 0.0153828 -0.999882 -0.577303 -0.568283 -0.586324 
0.571383 0.580311 -0.580311 0.574343 0.574343 -0.583318 0.0109619 0.701562 -0.712524 
0 0 -1 -0.574343 -0.574343 -0.583318 -0.999878 0 -0.0156231 
0.571383 0.580311 -0.580311 0.574343 0.574343 -0.583318 0 0.701604 -0.712567 
-0.015381 -0.015381 -0.999763 -0.015381 -0.999763 -0.015381 -0.999763 -0.015381 -0.015381 
0.0153828 0 -0.999882 0.0109619 -0.701562 -0.712524 0.999882 0 -0.0153828 
0 0.0153828 -0.999882 -0.999756 0.0156212 -0.0156212 0.571383 0.580311 -0.580311 
0.580311 0.571383 -0.580311 0 0.999882 -0.0153828 -0.015381 -0.015381 -0.999763 
-0.015381 -0.999763 -0.015381 -0.999763 -0.015381 -0.015381 0.0153828 0 -0.999882 
0.0109619 -0.701562 -0.712524 0.999882 0 -0.0153828 0 0.0153828 -0.999882 
-0.999756 0.0156212 -0.0156212 0.571383 0.580311 -0.580311 0.580311 0.571383 -0.580311 
0 -0.707107 -0.707107 0 -0.999882 -0.0153828 -0.571383 -0.580311 -0.580311 
0.701562 -0.712524 -0.0109619 0 0.999882 -0.0153828 -0.707065 -0.0108779 -0.707065 
-0.57735 -0.57735 -0.57735 -0.707065 -0.0108779 -0.707065 0.701562 -0.0109619 -0.712524 
0.701562 -0.712524 -0.0109619 0.015381 -0.015381 -0.999763 0.015381 -0.999763 -0.015381 
0.999763 -0.015381 -0.015381 -0.707107 0 -0.707107 -0.707107 0 -0.707107 
0.701604 0 -0.712567 0.0153828 0 -0.999882 0.999882 0 -0.0153828 
-0.707107 0 -0.707107 -0.707107 0 -0.707107 0.701604 0 -0.712567 
0.0153828 0 -0.999882 0.999882 0 -0.0153828 -0.707107 0 -0.707107 
-0.707107 0 -0.707107 0.701604 0 -0.712567 0.0153828 0 -0.999882 
0.999882 0 -0.0153828 -0.015381 -0.015381 -0.999763 -0.015381 -0.999763 -0.015381 
-0.999763 -0.015381 -0.015381 0.0153828 0 -0.999882 0.0109619 -0.701562 -0.712524 
0.999882 0 -0.0153828 -0.707107 0 -0.707107 -0.580311 -0.571383 -0.580311 
0.701604 0 -0.712567 0.0153828 0 -0.999882 0.999882 0 -0.0153828 
0 0.0153828 -0.999882 -0.999756 0.0156212 -0.0156212 0.571383 0.580311 -0.580311 
0.580311 0.571383 -0.580311 -0.015381 -0.015381 -0.999763 -0.57735 -0.57735 -0.57735 
-0.57735 -0.57735 -0.57735 -0.701604 0 -0.712567 0.701604 0 -0.712567 
0.0153828 0 -0.999882 0.999882 0 -0.0153828 0 0.999882 -0.0153828 
-0.015381 -0.015381 -0.999763 -0.57735 -0.57735 -0.57735 -0.57735 -0.57735 -0.57735 
0 0 -1 -0.701604 0 -0.712567 0.701604 0 -0.712567 
0.0153828 0 -0.999882 0.999882 0 -0.0153828 -0.015381 -0.015381 -0.999763 
-0.57735 -0.57735 -0.57735 -0.57735 -0.57735 -0.57735 0 0 -1 
0 0 -1 -0.701604 0 -0.712567 0.701604 0 -0.712567 
0.0153828 0 -0.999882 0.999882 0 -0.0153828 -0.015381 -0.015381 -0.999763 
-0.57735 -0.57735 -0.57735 -0.707065 -0.0108779 -0.707065 0 0 -1 
0 0 -1 0 0 -1 -0.701604 0 -0.712567 
0.701604 0 -0.712567 0.0153828 0 -0.999882 0.999882 0 -0.0153828 
-0.0153828 0 -0.999882 -0.707107 0 -0.707107 0 0 -1 
0 0 -1 0 0 -1 -0.701604 0 -0.712567 
0.701604 0 -0.712567 0.0153828 0 -0.999882 0.999882 0 -0.0153828 
-0.0153828 0 -0.999882 -0.707107 0 -0.707107 0 -0.701604 -0.712567 
0 -0.701604 -0.712567 0 -0.701604 -0.712567 -0.701604 0 -0.712567 
0.701604 0 -0.712567 0.015381 0.015381 -0.999763 0.999763 0.015381 -0.015381 
-0.707107 0 -0.707107 -0.707107 0 -0.707107 0.701562 0.0109619 -0.712524 
0 0.707107 -0.707107 0.015381 0.015381 -0.999763 0.707065 0.707065 -0.0108779 
0.707065 0.707065 -0.0108779 -0.580311 -0.571383 -0.580311 -0.707107 0 -0.707107 
0.574343 0.574343 -0.583318 0.0108779 0.707065 -0.707065 0.707065 0.707065 -0.0108779 
0.701562 0.712524 -0.0109619 0 0.999882 -0.0153828 0.015381 0.999763 -0.015381 
-0.712567 0 -0.701604 0.574343 0.574343 -0.583318 0.015381 0.015381 -0.999763 
0.707065 0.707065 -0.0108779 0.707065 0.707065 -0.0108779 -0.0109619 0.701562 -0.712524 
-0.707107 0 -0.707107 0.015381 0.015381 -0.999763 0.707065 0.707065 -0.0108779 
0.707065 0.707065 -0.0108779 0 0.0153828 -0.999882 -0.999756 0.0156212 -0.0156212 
0.701562 0.712524 -0.0109619 0.707065 0.707065 -0.0108779 0 0.999882 -0.0153828 
0 -0.707107 -0.707107 0 -0.999882 -0.0153828 -0.701562 -0.712524 -0.0109619 
0.701562 -0.0109619 -0.712524 -0.707107 -0.707107 0 -0.999882 -0.0153828 0 
0.712567 0 -0.701604 -0.999882 0.0153828 0 0.57735 0.57735 -0.57735 
0.707065 0.0108779 -0.707065 -0.0109619 0.712524 -0.701562 0.0108779 0.707065 -0.707065 
0 -0.707107 -0.707107 0 -0.999882 -0.0153828 -0.701562 -0.712524 -0.0109619 
0.701562 -0.0109619 -0.712524 -0.707107 -0.707107 0 -0.999882 -0.0153828 0 
0.712567 0 -0.701604 -0.999882 0.0153828 0 0.57735 0.57735 -0.57735 
0.707065 0.0108779 -0.707065 -0.015381 -0.015381 -0.999763 -0.0108779 -0.707065 -0.707065 
-0.707065 -0.0108779 -0.707065 -0.574343 -0.583318 -0.574343 0 -1 0 
0.015381 -0.999763 0.015381 0.707065 -0.707065 0.0108779 -0.0109619 0.712524 -0.701562 
0.0108779 0.707065 -0.707065 -0.707107 0 -0.707107 -0.707107 0 -0.707107 
0.701604 -0.712567 0 0.0153828 -0.999882 0 0.999882 -0.0153828 0 
-0.707107 0 -0.707107 -0.707107 0 -0.707107 1 0 0 
-0.707107 0 -0.707107 -0.707107 0 -0.707107 1 0 0 
0 -0.707107 -0.707107 0 -0.999882 -0.0153828 -0.701562 -0.712524 -0.0109619 
0.701562 -0.0109619 -0.712524 -0.707107 0 -0.707107 -0.707107 0 -0.707107 
1 0 0 -0.707107 -0.707107 0 -0.999882 -0.0153828 0 
0.712567 0 -0.701604 -0.580311 -0.571383 -0.580311 -0.580311 -0.571383 -0.580311 
1 0 0 -0.999882 0.0153828 0 0.57735 0.57735 -0.57735 
0.707065 0.0108779 -0.707065 -0.015381 -0.015381 -0.999763 -0.0108779 -0.707065 -0.707065 
-0.707065 -0.0108779 -0.707065 -0.571383 -0.580311 -0.580311 -0.571383 -0.580311 -0.580311 
1 0 0 -0.0153828 0.999882 0 0.015381 0.999763 -0.015381 
-0.580311 -0.571383 -0.580311 -0.580311 -0.571383 -0.580311 1 0 0 
-0.015381 -0.015381 -0.999763 -0.0108779 -0.707065 -0.707065 -0.707065 -0.0108779 -0.707065 
-0.571383 -0.580311 -0.580311 -0.571383 -0.580311 -0.580311 1 0 0 
-0.707107 0 -0.707107 -0.707107 0 -0.707107 1 0 0 
-0.707107 0 -0.707107 -0.707107 0 -0.707107 1 0 0 
-0.707107 0 -0.707107 -0.707107 0 -0.707107 0.999882 0.0153828 0 
-0.707107 0 -0.707107 -0.707107 0 -0.707107 0.707107 0.707107 0 
0.707107 0.707107 0 -0.707107 0 -0.707107 -0.707107 0 -0.707107 
0.707107 0.707107 0 0.701604 0.712567 0 0 1 0 
0.0153828 0.999882 0 -0.707107 0 -0.707107 -0.707107 0 -0.707107 
0.707107 0.707107 0 0.707107 0.707107 0 -0.712524 0.0109619 -0.701562 
-0.999882 0.0153828 0 0.707107 0.707107 0 0.707107 0.707107 0 
-0.707107 0.707107 0 -0.701604 0.712567 0 0.701604 0.712567 0 
0.707107 0.707107 0 0 1 0 -0.015381 -0.015381 -0.999763 
-0.015381 -0.999763 -0.015381 -0.999763 -0.015381 -0.015381 0.0153828 0 -0.999882 
0.0109619 -0.701562 -0.712524 0.999882 0 -0.0153828 0 0.0153828 -0.999882 
-0.999756 0.0156212 -0.0156212 0.571383 0.580311 -0.580311 0.580311 0.571383 -0.580311 
0 0.999882 -0.0153828 0 -0.0153828 -0.999882 0 -0.999882 -0.0153828 
-0.701562 -0.712524 -0.0109619 0.571383 -0.580311 -0.580311 -0.015381 -0.015381 -0.999763 
-0.707065 -0.707065 -0.0108779 -0.707065 -0.707065 -0.0108779 0 0 -1 
0.571383 -0.580311 -0.580311 0 -0.0153828 -0.999882 0.015381 -0.015381 -0.999763 
0.0108779 -0.707065 -0.707065 0.999763 -0.015381 -0.015381 -0.015381 -0.015381 -0.999763 
-0.707065 -0.707065 -0.0108779 -0.707065 -0.707065 -0.0108779 0 0 -1 
0 0 -1 0 0 -1 0.0153828 0 -0.999882 
0.580311 -0.571383 -0.580311 -0.015381 -0.015381 -0.999763 -0.015381 -0.999763 -0.015381 
-0.707065 -0.707065 -0.0108779 0 -0.0153828 -0.999882 0 -0.999882 -0.0153828 
0 -0.0153828 -0.999882 -0.701562 -0.712524 -0.0109619 0 0 -1 
0 0 -1 0 0 -1 0 0 -1 
0 0 -1 0.571383 -0.580311 -0.580311 0 -0.0153828 -0.999882 
0.015381 -0.015381 -0.999763 0.0108779 -0.707065 -0.707065 0.999763 -0.015381 -0.015381 
-0.707065 -0.707065 0.0108779 -0.707065 -0.707065 0.0108779 0.701604 0 -0.712567 
0 0 -1 0 0 -1 0 0 -1 
0 0 -1 0 0 -1 0 0 -1 
0 0 -1 0 0 -1 0.0153828 0 -0.999882 
0.999882 0 -0.0153828 -0.707107 -0.707107 0 -0.999882 -0.0153828 0 
0.701604 0 -0.712567 0 0 -1 0 0 -1 
0 0 -1 0 0 -1 0 0 -1 
0 0 -1 0 0 -1 0 0 -1 
0.0153828 0 -0.999882 0.999882 0 -0.0153828 -1 0 0 
0.701604 0 -0.712567 0 0 -1 0 0 -1 
0 0 -1 0 0 -1 0 0 -1 
0 0 -1 0 0 -1 0 0 -1 
0.0153828 0 -0.999882 0.580311 -0.571383 -0.580311 -0.0109619 0.701562 -0.712524 
-0.712524 -0.701562 -0.0109619 0 0.701604 -0.712567 0 0 -1 
0 0 -1 0 0 -1 0 0 -1 
0 0 -1 0 0 -1 0 0 -1 
0 0 -1 0 0 -1 0 0 -1 
0.571383 -0.580311 -0.580311 0 -0.0153828 -0.999882 0.015381 -0.015381 -0.999763 
0.0108779 -0.707065 -0.707065 0.999763 -0.015381 -0.015381 -0.707107 -0.707107 0 
-0.707107 -0.707107 0 0.701604 0 -0.712567 0 0 -1 
0 0 -1 0 0 -1 0 0 -1 
0 0 -1 0 0 -1 0 0 -1 
0 0 -1 0 0 -1 0 0 -1 
0 0 -1 0 0 -1 0.0153828 0 -0.999882 
0.580311 -0.571383 -0.580311 -0.707107 -0.707107 0 -0.999882 -0.0153828 0 
0.701604 0 -0.712567 0 0 -1 0 0 -1 
0 0 -1 0 0 -1 0 0 -1 
0 0 -1 0 0 -1 0 0 -1 
0 0 -1 0 0 -1 0 0 -1 
0 0 -1 0 0 -1 0.571383 -0.580311 -0.580311 
0 -0.0153828 -0.999882 0.0108779 -0.707065 -0.707065 0.0108779 -0.707065 -0.707065 
0.999763 -0.015381 -0.015381 -1 0 0 0.701604 0 -0.712567 
0 0 -1 0 0 -1 0 0 -1 
0 0 -1 0 0 -1 0 0 -1 
0 0 -1 0 0 -1 0 0 -1 
0 0 -1 0 0 -1 0 0 -1 
0 0 -1 -0.701604 0 -0.712567 0.712567 -0.701604 0 
0.701604 -0.712567 0 0.015381 -0.999763 0.015381 -0.0109619 0.701562 -0.712524 
-0.999882 0 -0.0153828 0 0.701604 -0.712567 0 0 -1 
0 0 -1 0 0 -1 0 0 -1 
0 0 -1 0 0 -1 0 0 -1 
0 0 -1 0 0 -1 0 0 -1 
0 0 -1 0 0 -1 0 0 -1 
0 0 -1 -0.701604 0 -0.712567 0.701604 -0.712567 0 
0 -1 0 0 -0.712567 -0.701604 0.0109619 -0.712524 -0.701562 
0.999882 -0.0153828 0 -0.0153828 0 -0.999882 -0.999882 0 -0.0153828 
0 0 -1 0 0 -1 0 0 -1 
0 0 -1 0 0 -1 0 0 -1 
0 0 -1 0 0 -1 0 0 -1 
0 0 -1 0 0 -1 0 0 -1 
0 0 -1 0 0 -1 0 0 -1 
-0.701604 0 -0.712567 0.999882 0 0.0153828 -0.0153828 0 -0.999882 
-0.712524 -0.701562 -0.0109619 0 0 -1 0 0 -1 