# vtk DataFile Version 3.0
vtk output
ASCII
DATASET POLYDATA
POINTS 7466 float
81 25 56.0233 81 24.0233 57 80.0233 25 57 
81.9767 25 57 81 25.9767 57 82 25.0233 57 
81.0233 26 57 82 26 56.0233 82.9767 26 57 
82 27 56.0233 81.0233 27 57 83 26.0233 57 
83 27 56.0233 83.9767 27 57 82 27.9767 57 
83 27.9767 57 84 27.0233 57 83.0233 28 57 
84 28 56.0233 84.9767 28 57 84 29 56.0233 
83.0233 29 57 85 28.0233 57 85 29 56.0233 
85.9767 29 57 84 29.9767 57 85 29.9767 57 
86 29.0233 57 85.0233 30 57 86 30 56.0233 
86.9767 30 57 86 31 56.0233 85.0233 31 57 
86.9767 31 57 86 32 56.0233 85.0233 32 57 
86.9767 32 57 86 33 56.0233 85.0233 33 57 
87 32.0233 57 87 33 56.0233 87.9767 33 57 
86 33.9767 57 87 33.9767 57 86 37 56.0233 
86 36.0233 57 85.0233 37 57 87 37 56.0233 
87 36.0233 57 87.9767 37 57 86 38 56.0233 
85.0233 38 57 86.9767 38 57 87 37.9767 57 
85 39 56.0233 85 38.0233 57 84.0233 39 57 
86 38.9767 57 85.9767 39 57 85 39.9767 57 
81 24 57.0233 81 23.0233 58 80.0233 24 58 
82 24 57.0233 82 23.0233 58 82.9767 24 58 
80 25 57.0233 80 24.0233 58 79.0233 25 58 
82 25 57.0233 82.9767 25 58 79 26 57.0233 
79 25.0233 58 78.0233 26 58 80 26 57.0233 
81 26 57.0233 83 26 57.0233 83 25.0233 58 
84 26 57.0233 84 25.0233 58 84.9767 26 58 
79 27 57.0233 78.0233 27 58 80 27 57.0233 
81 27 57.0233 84 27 57.0233 84.9767 27 58 
79 28 57.0233 78.0233 28 58 80 28 57.0233 
81 28 57.0233 82 28 57.0233 83 28 57.0233 
85 28 57.0233 85 27.0233 58 86 28 57.0233 
86 27.0233 58 86.9767 28 58 79 29 57.0233 
78.0233 29 58 80 29 57.0233 81 29 57.0233 
82 29 57.0233 83 29 57.0233 86 29 57.0233 
86.9767 29 58 79 30 57.0233 78.0233 30 58 
80 30 57.0233 81 30 57.0233 82 30 57.0233 
83 30 57.0233 84 30 57.0233 85 30 57.0233 
87 30 57.0233 87 29.0233 58 88 30 57.0233 
88 29.0233 58 88.9767 30 58 79 31 57.0233 
78.0233 31 58 80 31 57.0233 81 31 57.0233 
82 31 57.0233 83 31 57.0233 84 31 57.0233 
85 31 57.0233 87 31 57.0233 88 31 57.0233 
88.9767 31 58 79 32 57.0233 78.0233 32 58 
80 32 57.0233 81 32 57.0233 82 32 57.0233 
83 32 57.0233 84 32 57.0233 85 32 57.0233 
87 32 57.0233 88 32 57.0233 88.9767 32 58 
79 33 57.0233 78.0233 33 58 80 33 57.0233 
81 33 57.0233 82 33 57.0233 83 33 57.0233 
84 33 57.0233 85 33 57.0233 88 33 57.0233 
88.9767 33 58 79 33.9767 58 80 33.9767 58 
80.0233 34 58 81 34 57.0233 82 34 57.0233 
83 34 57.0233 84 34 57.0233 85 34 57.0233 
86 34 57.0233 87 34 57.0233 88 34 57.0233 
88.9767 34 58 81 35 57.0233 80.0233 35 58 
82 35 57.0233 83 35 57.0233 84 35 57.0233 
85 35 57.0233 86 35 57.0233 87 35 57.0233 
88 35 57.0233 88.9767 35 58 81 36 57.0233 
80.0233 36 58 82 36 57.0233 83 36 57.0233 
84 36 57.0233 85 36 57.0233 86 36 57.0233 
87 36 57.0233 88 36 57.0233 88.9767 36 58 
81 37 57.0233 80.0233 37 58 82 37 57.0233 
83 37 57.0233 84 37 57.0233 85 37 57.0233 
88 37 57.0233 88.9767 37 58 81 37.9767 58 
82 37.9767 58 82.0233 38 58 83 38 57.0233 
84 38 57.0233 85 38 57.0233 87 38 57.0233 
88 38 57.0233 88.9767 38 58 83 39 57.0233 
82.0233 39 58 84 39 57.0233 86 39 57.0233 
87 39 57.0233 87.9767 39 58 88 38.9767 58 
83 39.9767 58 84 39.9767 58 85 40 57.0233 
84.0233 40 58 86 40 57.0233 86.9767 40 58 
87 39.9767 58 85 41 57.0233 84.0233 41 58 
85.9767 41 58 86 40.9767 58 85 41.9767 58 
80 24 58.0233 80 23.0233 59 79.0233 24 59 
81 23.0233 59 82 23.0233 59 82.9767 24 59 
78 25 58.0233 78 24.0233 59 77.0233 25 59 
79 25 58.0233 79 24.0233 59 83 24.0233 59 
83 25 58.0233 83.9767 25 59 78 26 58.0233 
77.0233 26 59 84 25.0233 59 84.9767 26 59 
78 27 58.0233 77.0233 27 59 85 26.0233 59 
85 27 58.0233 85.9767 27 59 78 28 58.0233 
77.0233 28 59 86 27.0233 59 86.9767 28 59 
78 29 58.0233 77.0233 29 59 87 28.0233 59 
87 29 58.0233 87.9767 29 59 78 29.9767 59 
78.0233 30 59 88 29.0233 59 88.9767 30 59 
78.0233 31 59 88.9767 31 59 78.0233 32 59 
88.9767 32 59 78.0233 33 59 88.9767 33 59 
79 33.9767 59 80 33.9767 59 80.0233 34 59 
88.9767 34 59 80.0233 35 59 88.9767 35 59 
80.0233 36 59 88.9767 36 59 80.0233 37 59 
88.9767 37 59 81 37.9767 59 82 37.9767 59 
82.0233 38 59 88.9767 38 59 82.0233 39 59 
88 39 58.0233 88.9767 39 59 83 39.9767 59 
84 39.9767 59 84.0233 40 59 86.9767 40 59 
87 39.9767 59 88 39.9767 59 84.0233 41 59 
86 41 58.0233 86.9767 41 59 85 41.9767 59 
86 41.9767 59 75 24 59.0233 75 23.0233 60 
74.0233 24 60 76 24 59.0233 76 23.0233 60 
77 24 59.0233 77 23.0233 60 78 24 59.0233 
78 23.0233 60 79 24 59.0233 79 23.0233 60 
80 23.0233 60 81 23.0233 60 82 23.0233 60 
83 24 59.0233 83 23.0233 60 84 24 59.0233 
84 23.0233 60 84.9767 24 60 75 25 59.0233 
74.0233 25 60 76 25 59.0233 77 25 59.0233 
84 25 59.0233 84.9767 25 60 75 26 59.0233 
74.0233 26 60 76 26 59.0233 77 26 59.0233 
85 26 59.0233 85 25.0233 60 86 26 59.0233 
86 25.0233 60 86.9767 26 60 75 27 59.0233 
74.0233 27 60 76 27 59.0233 77 27 59.0233 
86 27 59.0233 86.9767 27 60 75 27.9767 60 
76 27.9767 60 76.0233 28 60 77 28 59.0233 
87 28 59.0233 87 27.0233 60 88 28 59.0233 
88 27.0233 60 88.9767 28 60 77 29 59.0233 
76.0233 29 60 88 29 59.0233 88.9767 29 60 
77 29.9767 60 78 29.9767 60 78.0233 30 60 
89 30 59.0233 89 29.0233 60 90 30 59.0233 
90 29.0233 60 90.9767 30 60 78.0233 31 60 
89 31 59.0233 90 31 59.0233 90.9767 31 60 
78.0233 32 60 89 32 59.0233 90 32 59.0233 
90.9767 32 60 78.0233 33 60 89 33 59.0233 
90 33 59.0233 90.9767 33 60 79 33.9767 60 
80 33.9767 60 80.0233 34 60 89 34 59.0233 
90 34 59.0233 91 33.0233 60 91 34 59.0233 
92 34 59.0233 92 33.0233 60 92.9767 34 60 
80.0233 35 60 89 35 59.0233 90 35 59.0233 
91 35 59.0233 92 35 59.0233 92.9767 35 60 
80.0233 36 60 89 36 59.0233 90 36 59.0233 
91 36 59.0233 92 36 59.0233 92.9767 36 60 
80.0233 37 60 89 37 59.0233 90 37 59.0233 
91 37 59.0233 91.9767 37 60 92 36.9767 60 
81 37.9767 60 82 37.9767 60 82.0233 38 60 
89 38 59.0233 90 38 59.0233 90.9767 38 60 
91 37.9767 60 82.0233 39 60 89 39 59.0233 
90 39 59.0233 90.9767 39 60 83 39.9767 60 
84 39.9767 60 84.0233 40 60 87 40 59.0233 
88 40 59.0233 89 40 59.0233 90 40 59.0233 
90.9767 40 60 84.0233 41 60 87 41 59.0233 
88 41 59.0233 89 41 59.0233 90 41 59.0233 
90.9767 41 60 85 42 59.0233 84.0233 42 60 
86 42 59.0233 87 42 59.0233 88 42 59.0233 
89 42 59.0233 90 42 59.0233 90.9767 42 60 
85 43 59.0233 84.0233 43 60 86 43 59.0233 
87 43 59.0233 88 43 59.0233 89 43 59.0233 
89.9767 43 60 90 42.9767 60 85 43.9767 60 
86 43.9767 60 86.0233 44 60 87 44 59.0233 
88 44 59.0233 88.9767 44 60 89 43.9767 60 
87 45 59.0233 86.0233 45 60 87.9767 45 60 
88 44.9767 60 87 45.9767 60 75 23.0233 61 
74.0233 24 61 76 23.0233 61 77 23.0233 61 
78 23.0233 61 79 23.0233 61 80 23.0233 61 
81 23.0233 61 82 23.0233 61 83 23.0233 61 
84 23.0233 61 84.9767 24 61 74.0233 25 61 
85 24.0233 61 85 25 60.0233 86 25 60.0233 
86 24.0233 61 86.9767 25 61 74.0233 26 61 
86.9767 26 61 74.0233 27 61 87 26.0233 61 
87 27 60.0233 88 27 60.0233 88 26.0233 61 
88.9767 27 61 75 27.9767 61 76 28 60.0233 
75.0233 28 61 88.9767 28 61 76 28.9767 61 
76.0233 29 61 89 28.0233 61 89 29 60.0233 
89.9767 29 61 77 29.9767 61 78 30 60.0233 
77.0233 30 61 90 29.0233 61 90.9767 30 61 
78 31 60.0233 77.0233 31 61 90.9767 31 61 
78 32 60.0233 77.0233 32 61 90.9767 32 61 
78 33 60.0233 77.0233 33 61 91 32.0233 61 
91 33 60.0233 91.9767 33 61 78 33.9767 61 
79 33.9767 61 80 34 60.0233 79.0233 34 61 
92 33.0233 61 92.9767 34 61 80 35 60.0233 
79.0233 35 61 92.9767 35 61 80 36 60.0233 
79.0233 36 61 92.9767 36 61 80 36.9767 61 
80.0233 37 61 92 37 60.0233 92.9767 37 61 
81 37.9767 61 82 37.9767 61 82.0233 38 61 
90.9767 38 61 91 37.9767 61 92 37.9767 61 
82.0233 39 61 90.9767 39 61 83 39.9767 61 
84 40 60.0233 83.0233 40 61 90.9767 40 61 
84 41 60.0233 83.0233 41 61 90.9767 41 61 
84 41.9767 61 84.0233 42 61 90.9767 42 61 
84.0233 43 61 90 43 60.0233 90.9767 43 61 
85 43.9767 61 86 44 60.0233 85.0233 44 61 
88.9767 44 61 89 43.9767 61 90 43.9767 61 
86 45 60.0233 85.0233 45 61 88 45 60.0233 
88.9767 45 61 86 45.9767 61 87 45.9767 61 
88 45.9767 61 75 23.0233 62 74.0233 24 62 
76 23.0233 62 77 23.0233 62 78 23.0233 62 
79 23.0233 62 80 23.0233 62 81 23.0233 62 
82 23.0233 62 83 23.0233 62 84 23.0233 62 
85 24 61.0233 85 23.0233 62 86 24 61.0233 
86 23.0233 62 87 24 61.0233 87 23.0233 62 
88 24 61.0233 88 23.0233 62 88.9767 24 62 
74.0233 25 62 87 25 61.0233 88 25 61.0233 
88.9767 25 62 74.0233 26 62 87 26 61.0233 
88 26 61.0233 89 25.0233 62 89 26 61.0233 
90 26 61.0233 90 25.0233 62 90.9767 26 62 
74.0233 27 62 89 27 61.0233 90 27 61.0233 
90.9767 27 62 75 27.9767 62 76 27.9767 62 
76 28 61.9767 76.0233 28 62 89 28 61.0233 
90 28 61.0233 90.9767 28 62 76.0233 29 62 
90 29 61.0233 90.9767 29 62 77 29.9767 62 
78 29.9767 62 78 30 61.9767 78.0233 30 62 
91 30 61.0233 91 29.0233 62 92 30 61.0233 
92 29.0233 62 92.9767 30 62 78 30.0233 62 
77.0233 31 62 91 31 61.0233 92 31 61.0233 
92.9767 31 62 75 32 61.0233 75 31.0233 62 
74.0233 32 62 76 32 61.0233 76 31.0233 62 
77 32 61.0233 77 31.0233 62 91 32 61.0233 
92 32 61.0233 92.9767 32 62 75 33 61.0233 
74.0233 33 62 76 33 61.0233 77 33 61.0233 
92 33 61.0233 92.9767 33 62 75 33.9767 62 
76 33.9767 62 76.0233 34 62 77 34 61.0233 
78 34 61.0233 79 34 61.0233 92.9767 34 62 
77 35 61.0233 76.0233 35 62 78 35 61.0233 
79 35 61.0233 92.9767 35 62 77 35.9767 62 
78 35.9767 62 78.0233 36 62 79 36 61.0233 
93 35.0233 62 93 36 61.0233 94 36 61.0233 
94 35.0233 62 94.9767 36 62 79 37 61.0233 
78.0233 37 62 80 37 61.0233 93 37 61.0233 
94 37 61.0233 94.9767 37 62 79 37.9767 62 
80 37.9767 62 81 37.9767 62 82 37.9767 62 
82.0233 38 62 91 38 61.0233 92 38 61.0233 
93 38 61.0233 94 38 61.0233 94.9767 38 62 
82.0233 39 62 91 39 61.0233 92 39 61.0233 
93 39 61.0233 93.9767 39 62 94 38.9767 62 
83 40 61.0233 82.0233 40 62 91 40 61.0233 
92 40 61.0233 92.9767 40 62 93 39.9767 62 
83 41 61.0233 82.0233 41 62 91 41 61.0233 
92 41 61.0233 92.9767 41 62 83 41.9767 62 
84 41.9767 62 84.0233 42 62 91 42 61.0233 
92 42 61.0233 92.9767 42 62 84.0233 43 62 
91 43 61.0233 91.9767 43 62 92 42.9767 62 
85 44 61.0233 84.0233 44 62 89 44 61.0233 
90 44 61.0233 90.9767 44 62 91 43.9767 62 
[...]
POINT_DATA 7466
SCALARS scalars float
LOOKUP_TABLE default
1 1 1 1 1 1 1 1 1 
1 1 1 1 1 1 1 1 1 
1 1 1 1 1 1 1 1 1 
1 1 1 1 1 1 1 1 1 
1 1 1 1 1 1 1 1 1 
1 1 1 1 1 1 1 1 1 
1 1 1 1 1 1 1 1 1 
1 1 1 1 1 1 1 1 1 
1 1 1 1 1 1 1 1 1 
1 1 1 1 1 1 1 1 1 
1 1 1 1 1 1 1 1 1 
1 1 1 1 1 1 1 1 1 
1 1 1 1 1 1 1 1 1 
1 1 1 1 1 1 1 1 1 
1 1 1 1 1 1 1 1 1 
1 1 1 1 1 1 1 1 1 
1 1 1 1 1 1 1 1 1 
1 1 1 1 1 1 1 1 1 
1 1 1 1 1 1 1 1 1 
1 1 1 1 1 1 1 1 1 
1 1 1 1 1 1 1 1 1 
1 1 1 1 1 1 1 1 1 
1 1 1 1 1 1 1 1 1 
1 1 1 1 1 1 1 1 1 
1 1 1 1 1 1 1 1 1 
1 1 1 1 1 1 1 1 1 
1 1 1 1 1 1 1 1 1 
1 1 1 1 1 1 1 1 1 
1 1 1 1 1 1 1 1 1 
1 1 1 1 1 1 1 1 1 
1 1 1 1 1 1 1 1 1 
1 1 1 1 1 1 1 1 1 
1 1 1 1 1 1 1 1 1 
1 1 1 1 1 1 1 1 1 
1 1 1 1 1 1 1 1 1 
1 1 1 1 1 1 1 1 1 
1 1 1 1 1 1 1 1 1 
1 1 1 1 1 1 1 1 1 
1 1 1 1 1 1 1 1 1 
1 1 1 1 1 1 1 1 1 
1 1 1 1 1 1 1 1 1 
1 1 1 1 1 1 1 1 1 
1 1 1 1 1 1 1 1 1 
1 1 1 1 1 1 1 1 1 
1 1 1 1 1 1 1 1 1 
1 1 1 1 1 1 1 1 1 
1 1 1 1 1 1 1 1 1 
1 1 1 1 1 1 1 1 1 
1 1 1 1 1 1 1 1 1 
1 1 1 1 1 1 1 1 1 
1 1 1 1 1 1 1 1 1 
1 1 1 1 1 1 1 1 1 
1 1 1 1 1 1 1 1 1 
1 1 1 1 1 1 1 1 1 
1 1 1 1 1 1 1 1 1 
1 1 1 1 1 1 1 1 1 
1 1 1 1 1 1 1 1 1 
1 1 1 1 1 1 1 1 1 
1 1 1 1 1 1 1 1 1 
1 1 1 1 1 1 1 1 1 
1 1 1 1 1 1 1 1 1 
1 1 1 1 1 1 1 1 1 
1 1 1 1 1 1 1 1 1 
1 1 1 1 1 1 1 1 1 
1 1 1 1 1 1 1 1 1 
1 1 1 1 1 1 1 1 1 
1 1 1 1 1 1 1 1 1 
1 1 1 1 1 1 1 1 1 
1 1 1 1 1 1 1 1 1 
1 1 1 1 1 1 1 1 1 
1 1 1 1 1 1 1 1 1 
1 1 1 1 1 1 1 1 1 
1 1 1 1 1 1 1 1 1 
1 1 1 1 1 1 1 1 1 
1 1 1 1 1 1 1 1 1 
1 1 1 1 1 1 1 1 1 
1 1 1 1 1 1 1 1 1 
1 1 1 1 1 1 1 1 1 
1 1 1 1 1 1 1 1 1 
1 1 1 1 1 1 1 1 1 
1 1 1 1 1 1 1 1 1 
1 1 1 1 1 1 1 1 1 
1 1 1 1 1 1 1 1 1 
1 1 1 1 1 1 1 1 1 
1 1 1 1 1 1 1 1 1 
1 1 1 1 1 1 1 1 1 
1 1 1 1 1 1 1 1 1 
1 1 1 1 1 1 1 1 1 
1 1 1 1 1 1 1 1 1 
1 1 1 1 1 1 1 1 1 
1 1 1 1 1 1 1 1 1 
1 1 1 1 1 1 1 1 1 
1 1 1 1 1 1 1 1 1 
1 1 1 1 1 1 1 1 1 
1 1 1 1 1 1 1 1 1 
1 1 1 1 1 1 1 1 1 
1 1 1 1 1 1 1 1 1 
1 1 1 1 1 1 1 1 1 
1 1 1 1 1 1 1 1 1 
1 1 1 1 1 1 1 1 1 
1 1 1 1 1 1 1 1 1 
1 1 1 1 1 1 1 1 1 
1 1 1 1 1 1 1 1 1 
1 1 1 1 1 1 1 1 1 
1 1 1 1 1 1 1 1 1 
1 1 1 1 1 1 1 1 1 
1 1 1 1 1 1 1 1 1 
1 1 1 1 1 1 1 1 1 
1 1 1 1 1 1 1 1 1 
1 1 1 1 1 1 1 1 1 
1 1 1 1 1 1 1 1 1 
1 1 1 1 1 1 1 1 1 
1 1 1 1 1 1 1 1 1 
1 1 1 1 1 1 1 1 1 
1 1 1 1 1 1 1 1 1 
1 1 1 1 1 1 1 1 1 
1 1 1 1 1 1 1 1 1 
1 1 1 1 1 1 1 1 1 
1 1 1 1 1 1 1 1 1 
1 1 1 1 1 1 1 1 1 
1 1 1 1 1 1 1 1 1 
1 1 1 1 1 1 1 1 1 
1 1 1 1 1 1 1 1 1 
1 1 1 1 1 1 1 1 1 
1 1 1 1 1 1 1 1 1 
1 1 1 1 1 1 1 1 1 
1 1 1 1 1 1 1 1 1 
1 1 1 1 1 1 1 1 1 
1 1 1 1 1 1 1 1 1 
1 1 1 1 1 1 1 1 1 
1 1 1 1 1 1 1 1 1 
1 1 1 1 1 1 1 1 1 
1 1 1 1 1 1 1 1 1 
1 1 1 1 1 1 1 1 1 
1 1 1 1 1 1 1 1 1 
1 1 1 1 1 1 1 1 1 
1 1 1 1 1 1 1 1 1 
1 1 1 1 1 1 1 1 1 
1 1 1 1 1 1 1 1 1 
1 1 1 1 1 1 1 1 1 
1 1 1 1 1 1 1 1 1 
1 1 1 1 1 1 1 1 1 
1 1 1 1 1 1 1 1 1 
1 1 1 1 1 1 1 1 1 
1 1 1 1 1 1 1 1 1 
1 1 1 1 1 1 1 1 1 
1 1 1 1 1 1 1 1 1 
1 1 1 1 1 1 1 1 1 
1 1 1 1 1 1 1 1 1 
1 1 1 1 1 1 1 1 1 
1 1 1 1 1 1 1 1 1 
1 1 1 1 1 1 1 1 1 
1 1 1 1 1 1 1 1 1 
1 1 1 1 1 1 1 1 1 
1 1 1 1 1 1 1 1 1 
1 1 1 1 1 1 1 1 1 
1 1 1 1 1 1 1 1 1 
1 1 1 1 1 1 1 1 1 
1 1 1 1 1 1 1 1 1 
1 1 1 1 1 1 1 1 1 
1 1 1 1 1 1 1 1 1 
1 1 1 1 1 1 1 1 1 
1 1 1 1 1 1 1 1 1 
1 1 1 1 1 1 1 1 1 
1 1 1 1 1 1 1 1 1 
1 1 1 1 1 1 1 1 1 
1 1 1 1 1 1 1 1 1 
1 1 1 1 1 1 1 1 1 
1 1 1 1 1 1 1 1 1 
1 1 1 1 1 1 1 1 1 
1 1 1 1 1 1 1 1 1 
1 1 1 1 1 1 1 1 1 
1 1 1 1 1 1 1 1 1 
1 1 1 1 1 1 1 1 1 
1 1 1 1 1 1 1 1 1 
1 1 1 1 1 1 1 1 1 
1 1 1 1 1 1 1 1 1 
1 1 1 1 1 1 1 1 1 
1 1 1 1 1 1 1 1 1 
1 1 1 1 1 1 1 1 1 
1 1 1 1 1 1 1 1 1 
1 1 1 1 1 1 1 1 1 
1 1 1 1 1 1 1 1 1 
1 1 1 1 1 1 1 1 1 
1 1 1 1 1 1 1 1 1 
1 1 1 1 1 1 1 1 1 
1 1 1 1 1 1 1 1 1 
1 1 1 1 1 1 1 1 1 
1 1 1 1 1 1 1 1 1 
1 1 1 1 1 1 1 1 1 
1 1 1 1 1 1 1 1 1 
1 1 1 1 1 1 1 1 1 
1 1 1 1 1 1 1 1 1 
1 1 1 1 1 1 1 1 1 
1 1 1 1 1 1 1 1 1 
1 1 1 1 1 1 1 1 1 
1 1 1 1 1 1 1 1 1 
1 1 1 1 1 1 1 1 1 
1 1 1 1 1 1 1 1 1 
1 1 1 1 1 1 1 1 1 
1 1 1 1 1 1 1 1 1 
1 1 1 1 1 1 1 1 1 
1 1 1 1 1 1 1 1 1 
1 1 1 1 1 1 1 1 1 
1 1 1 1 1 1 1 1 1 
1 1 1 1 1 1 1 1 1 
1 1 1 1 1 1 1 1 1 
1 1 1 1 1 1 1 1 1 
1 1 1 1 1 1 1 1 1 
1 1 1 1 1 1 1 1 1 
1 1 1 1 1 1 1 1 1 
1 1 1 1 1 1 1 1 1 
1 1 1 1 1 1 1 1 1 
1 1 1 1 1 1 1 1 1 
1 1 1 1 1 1 1 1 1 
1 1 1 1 1 1 1 1 1 
1 1 1 1 1 1 1 1 1 
1 1 1 1 1 1 1 1 1 
1 1 1 1 1 1 1 1 1 
1 1 1 1 1 1 1 1 1 
1 1 1 1 1 1 1 1 1 
1 1 1 1 1 1 1 1 1 
1 1 1 1 1 1 1 1 1 
1 1 1 1 1 1 1 1 1 
1 1 1 1 1 1 1 1 1 
1 1 1 1 1 1 1 1 1 
1 1 1 1 1 1 1 1 1 
1 1 1 1 1 1 1 1 1 
1 1 1 1 1 1 1 1 1 
1 1 1 1 1 1 1 1 1 
1 1 1 1 1 1 1 1 1 
1 1 1 1 1 1 1 1 1 
1 1 1 1 1 1 1 1 1 
1 1 1 1 1 1 1 1 1 
1 1 1 1 1 1 1 1 1 
1 1 1 1 1 1 1 1 1 
1 1 1 1 1 1 1 1 1 
1 1 1 1 1 1 1 1 1 
1 1 1 1 1 1 1 1 1 
1 1 1 1 1 1 1 1 1 
1 1 1 1 1 1 1 1 1 
1 1 1 1 1 1 1 1 1 
1 1 1 1 1 1 1 1 1 
1 1 1 1 1 1 1 1 1 
1 1 1 1 1 1 1 1 1 
1 1 1 1 1 1 1 1 1 
1 1 1 1 1 1 1 1 1 
1 1 1 1 1 1 1 1 1 
1 1 1 1 1 1 1 1 1 
1 1 1 1 1 1 1 1 1 
1 1 1 1 1 1 1 1 1 
1 1 1 1 1 1 1 1 1 
1 1 1 1 1 1 1 1 1 
1 1 1 1 1 1 1 1 1 
1 1 1 1 1 1 1 1 1 
1 1 1 1 1 1 1 1 1 
1 1 1 1 1 1 1 1 1 
1 1 1 1 1 1 1 1 1 
1 1 1 1 1 1 1 1 1 
1 1 1 1 1 1 1 1 1 
1 1 1 1 1 1 1 1 1 
1 1 1 1 1 1 1 1 1 
1 1 1 1 1 1 1 1 1 
1 1 1 1 1 1 1 1 1 
1 1 1 1 1 1 1 1 1 
1 1 1 1 1 1 1 1 1 
1 1 1 1 1 1 1 1 1 
1 1 1 1 1 1 1 1 1 
1 1 1 1 1 1 1 1 1 
1 1 1 1 1 1 1 1 1 
1 1 1 1 1 1 1 1 1 
1 1 1 1 1 1 1 1 1 
1 1 1 1 1 1 1 1 1 
1 1 1 1 1 1 1 1 1 
1 1 1 1 1 1 1 1 1 
1 1 1 1 1 1 1 1 1 
1 1 1 1 1 1 1 1 1 
1 1 1 1 1 1 1 1 1 
1 1 1 1 1 1 1 1 1 
1 1 1 1 1 1 1 1 1 
1 1 1 1 1 1 1 1 1 
1 1 1 1 1 1 1 1 1 
1 1 1 1 1 1 1 1 1 
1 1 1 1 1 1 1 1 1 
1 1 1 1 1 1 1 1 1 
1 1 1 1 1 1 1 1 1 
1 1 1 1 1 1 1 1 1 
1 1 1 1 1 1 1 1 1 
1 1 1 1 1 1 1 1 1 
1 1 1 1 1 1 1 1 1 
1 1 1 1 1 1 1 1 1 
1 1 1 1 1 1 1 1 1 
1 1 1 1 1 1 1 1 1 
1 1 1 1 1 1 1 1 1 
1 1 1 1 1 1 1 1 1 
1 1 1 1 1 1 1 1 1 
1 1 1 1 1 1 1 1 1 
1 1 1 1 1 1 1 1 1 
1 1 1 1 1 1 1 1 1 
1 1 1 1 1 1 1 1 1 
1 1 1 1 1 1 1 1 1 
1 1 1 1 1 1 1 1 1 
1 1 1 1 1 1 1 1 1 
1 1 1 1 1 1 1 1 1 
1 1 1 1 1 1 1 1 1 
1 1 1 1 1 1 1 1 1 
1 1 1 1 1 1 1 1 1 
1 1 1 1 1 1 1 1 1 
1 1 1 1 1 1 1 1 1 
1 1 1 1 1 1 1 1 1 
1 1 1 1 1 1 1 1 1 
1 1 1 1 1 1 1 1 1 
1 1 1 1 1 1 1 1 1 
1 1 1 1 1 1 1 1 1 
1 1 1 1 1 1 1 1 1 
1 1 1 1 1 1 1 1 1 
1 1 1 1 1 1 1 1 1 
1 1 1 1 1 1 1 1 1 
1 1 1 1 1 1 1 1 1 
1 1 1 1 1 1 1 1 1 
1 1 1 1 1 1 1 1 1 
1 1 1 1 1 1 1 1 1 
1 1 1 1 1 1 1 1 1 
1 1 1 1 1 1 1 1 1 
1 1 1 1 1 1 1 1 1 
1 1 1 1 1 1 1 1 1 
1 1 1 1 1 1 1 1 1 
1 1 1 1 1 1 1 1 1 
1 1 1 1 1 1 1 1 1 
1 1 1 1 1 1 1 1 1 
1 1 1 1 1 1 1 1 1 
1 1 1 1 1 1 1 1 1 
1 1 1 1 1 1 1 1 1 
1 1 1 1 1 1 1 1 1 
1 1 1 1 1 1 1 1 1 
1 1 1 1 1 1 1 1 1 
1 1 1 1 1 1 1 1 1 
1 1 1 1 1 1 1 1 1 
1 1 1 1 1 1 1 1 1 
1 1 1 1 1 1 1 1 1 
1 1 1 1 1 1 1 1 1 
1 1 1 1 1 1 1 1 1 
1 1 1 1 1 1 1 1 1 
1 1 1 1 1 1 1 1 1 
1 1 1 1 1 1 1 1 1 
1 1 1 1 1 1 1 1 1 
1 1 1 1 1 1 1 1 1 
1 1 1 1 1 1 1 1 1 
1 1 1 1 1 1 1 1 1 
1 1 1 1 1 1 1 1 1 
1 1 1 1 1 1 1 1 1 
1 1 1 1 1 1 1 1 1 
1 1 1 1 1 1 1 1 1 
1 1 1 1 1 1 1 1 1 
1 1 1 1 1 1 1 1 1 
1 1 1 1 1 1 1 1 1 
1 1 1 1 1 1 1 1 1 
1 1 1 1 1 1 1 1 1 
1 1 1 1 1 1 1 1 1 
1 1 1 1 1 1 1 1 1 
1 1 1 1 1 1 1 1 1 
1 1 1 1 1 1 1 1 1 
1 1 1 1 1 1 1 1 1 
1 1 1 1 1 1 1 1 1 
1 1 1 1 1 1 1 1 1 
1 1 1 1 1 1 1 1 1 
1 1 1 1 1 1 1 1 1 
1 1 1 1 1 1 1 1 1 
1 1 1 1 1 1 1 1 1 
1 1 1 1 1 1 1 1 1 
1 1 1 1 1 1 1 1 1 
1 1 1 1 1 1 1 1 1 
1 1 1 1 1 1 1 1 1 
1 1 1 1 1 1 1 1 1 
1 1 1 1 1 1 1 1 1 
1 1 1 1 1 1 1 1 1 
1 1 1 1 1 1 1 1 1 
1 1 1 1 1 1 1 1 1 
1 1 1 1 1 1 1 1 1 
1 1 1 1 1 1 1 1 1 
1 1 1 1 1 1 1 1 1 
1 1 1 1 1 1 1 1 1 
1 1 1 1 1 1 1 1 1 
1 1 1 1 1 1 1 1 1 
1 1 1 1 1 1 1 1 1 
1 1 1 1 1 1 1 1 1 
1 1 1 1 1 1 1 1 1 
1 1 1 1 1 1 1 1 1 
1 1 1 1 1 1 1 1 1 
1 1 1 1 1 1 1 1 1 
1 1 1 1 1 1 1 1 1 
1 1 1 1 1 1 1 1 1 
1 1 1 1 1 1 1 1 1 
1 1 1 1 1 1 1 1 1 
1 1 1 1 1 1 1 1 1 
1 1 1 1 1 1 1 1 1 
1 1 1 1 1 1 1 1 1 
1 1 1 1 1 1 1 1 1 
1 1 1 1 1 1 1 1 1 
1 1 1 1 1 1 1 1 1 
1 1 1 1 1 1 1 1 1 
1 1 1 1 1 1 1 1 1 
1 1 1 1 1 1 1 1 1 
1 1 1 1 1 1 1 1 1 
1 1 1 1 1 1 1 1 1 
1 1 1 1 1 1 1 1 1 
1 1 1 1 1 1 1 1 1 
1 1 1 1 1 1 1 1 1 
1 1 1 1 1 1 1 1 1 
1 1 1 1 1 1 1 1 1 
1 1 1 1 1 1 1 1 1 
1 1 1 1 1 1 1 1 1 
1 1 1 1 1 1 1 1 1 
1 1 1 1 1 1 1 1 1 
1 1 1 1 1 1 1 1 1 
1 1 1 1 1 1 1 1 1 
1 1 1 1 1 1 1 1 1 
1 1 1 1 1 1 1 1 1 
1 1 1 1 1 1 1 1 1 
1 1 1 1 1 1 1 1 1 
1 1 1 1 1 1 1 1 1 
1 1 1 1 1 1 1 1 1 
1 1 1 1 1 1 1 1 1 
1 1 1 1 1 1 1 1 1 
1 1 1 1 1 1 1 1 1 
1 1 1 1 1 1 1 1 1 
1 1 1 1 1 1 1 1 1 
1 1 1 1 1 1 1 1 1 
1 1 1 1 1 1 1 1 1 
1 1 1 1 1 1 1 1 1 
1 1 1 1 1 1 1 1 1 
1 1 1 1 1 1 1 1 1 
1 1 1 1 1 1 1 1 1 
1 1 1 1 1 1 1 1 1 
1 1 1 1 1 1 1 1 1 
1 1 1 1 1 1 1 1 1 
1 1 1 1 1 1 1 1 1 
1 1 1 1 1 1 1 1 1 
1 1 1 1 1 1 1 1 1 
1 1 1 1 1 1 1 1 1 
1 1 1 1 1 1 1 1 1 
1 1 1 1 1 1 1 1 1 
1 1 1 1 1 1 1 1 1 
1 1 1 1 1 1 1 1 1 
1 1 1 1 1 1 1 1 1 
1 1 1 1 1 1 1 1 1 
1 1 1 1 1 1 1 1 1 
1 1 1 1 1 1 1 1 1 
1 1 1 1 1 1 1 1 1 
1 1 1 1 1 1 1 1 1 
1 1 1 1 1 1 1 1 1 
1 1 1 1 1 1 1 1 1 
1 1 1 1 1 1 1 1 1 
1 1 1 1 1 1 1 1 1 
1 1 1 1 1 1 1 1 1 
1 1 1 1 1 1 1 1 1 
1 1 1 1 1 1 1 1 1 
1 1 1 1 1 1 1 1 1 
1 1 1 1 1 1 1 1 1 
1 1 1 1 1 1 1 1 1 
1 1 1 1 1 1 1 1 1 
1 1 1 1 1 1 1 1 1 
1 1 1 1 1 1 1 1 1 
1 1 1 1 1 1 1 1 1 
1 1 1 1 1 1 1 1 1 
1 1 1 1 1 1 1 1 1 
1 1 1 1 1 1 1 1 1 
1 1 1 1 1 1 1 1 1 
1 1 1 1 1 1 1 1 1 
1 1 1 1 1 1 1 1 1 
1 1 1 1 1 1 1 1 1 
1 1 1 1 1 1 1 1 1 
1 1 1 1 1 1 1 1 1 
1 1 1 1 1 1 1 1 1 
1 1 1 1 1 1 1 1 1 
1 1 1 1 1 1 1 1 1 
1 1 1 1 1 1 1 1 1 
1 1 1 1 1 1 1 1 1 
1 1 1 1 1 1 1 1 1 
1 1 1 1 1 1 1 1 1 
1 1 1 1 1 1 1 1 1 
1 1 1 1 1 1 1 1 1 
1 1 1 1 1 1 1 1 1 
1 1 1 1 1 1 1 1 1 
1 1 1 1 1 1 1 1 1 
1 1 1 1 1 1 1 1 1 
1 1 1 1 1 1 1 1 1 
1 1 1 1 1 1 1 1 1 
1 1 1 1 1 1 1 1 1 
1 1 1 1 1 1 1 1 1 
1 1 1 1 1 1 1 1 1 
1 1 1 1 1 1 1 1 1 
1 1 1 1 1 1 1 1 1 
1 1 1 1 1 1 1 1 1 
1 1 1 1 1 1 1 1 1 
1 1 1 1 1 1 1 1 1 
1 1 1 1 1 1 1 1 1 
1 1 1 1 1 1 1 1 1 
1 1 1 1 1 1 1 1 1 
1 1 1 1 1 1 1 1 1 
1 1 1 1 1 1 1 1 1 
1 1 1 1 1 1 1 1 1 
1 1 1 1 1 1 1 1 1 
1 1 1 1 1 1 1 1 1 
1 1 1 1 1 1 1 1 1 
1 1 1 1 1 1 1 1 1 
1 1 1 1 1 1 1 1 1 
1 1 1 1 1 1 1 1 1 
1 1 1 1 1 1 1 1 1 
1 1 1 1 1 1 1 1 1 
1 1 1 1 1 1 1 1 1 
1 1 1 1 1 1 1 1 1 
1 1 1 1 1 1 1 1 1 
1 1 1 1 1 1 1 1 1 
1 1 1 1 1 1 1 1 1 
1 1 1 1 1 1 1 1 1 
1 1 1 1 1 1 1 1 1 
1 1 1 1 1 1 1 1 1 
1 1 1 1 1 1 1 1 1 
1 1 1 1 1 1 1 1 1 
1 1 1 1 1 1 1 1 1 
1 1 1 1 1 1 1 1 1 
1 1 1 1 1 1 1 1 1 
1 1 1 1 1 1 1 1 1 
1 1 1 1 1 1 1 1 1 
1 1 1 1 1 1 1 1 1 
1 1 1 1 1 1 1 1 1 
1 1 1 1 1 1 1 1 1 
1 1 1 1 1 1 1 1 1 
1 1 1 1 1 1 1 1 1 
1 1 1 1 1 1 1 1 1 
1 1 1 1 1 1 1 1 1 
1 1 1 1 1 1 1 1 1 
1 1 1 1 1 1 1 1 1 
1 1 1 1 1 1 1 1 1 
1 1 1 1 1 1 1 1 1 
1 1 1 1 1 1 1 1 1 
1 1 1 1 1 1 1 1 1 
1 1 1 1 1 1 1 1 1 
1 1 1 1 1 1 1 1 1 
1 1 1 1 1 1 1 1 1 
1 1 1 1 1 1 1 1 1 
1 1 1 1 1 1 1 1 1 
1 1 1 1 1 1 1 1 1 
1 1 1 1 1 1 1 1 1 
1 1 1 1 1 1 1 1 1 
1 1 1 1 1 1 1 1 1 
1 1 1 1 1 1 1 1 1 
1 1 1 1 1 1 1 1 1 
1 1 1 1 1 1 1 1 1 
1 1 1 1 1 1 1 1 1 
1 1 1 1 1 1 1 1 1 
1 1 1 1 1 1 1 1 1 
1 1 1 1 1 1 1 1 1 
1 1 1 1 1 1 1 1 1 
1 1 1 1 1 1 1 1 1 
1 1 1 1 1 1 1 1 1 
1 1 1 1 1 1 1 1 1 
1 1 1 1 1 1 1 1 1 
1 1 1 1 1 1 1 1 1 
1 1 1 1 1 1 1 1 1 
1 1 1 1 1 1 1 1 1 
1 1 1 1 1 1 1 1 1 
1 1 1 1 1 1 1 1 1 
1 1 1 1 1 1 1 1 1 
1 1 1 1 1 1 1 1 1 
1 1 1 1 1 1 1 1 1 
1 1 1 1 1 1 1 1 1 
1 1 1 1 1 1 1 1 1 
1 1 1 1 1 1 1 1 1 
1 1 1 1 1 1 1 1 1 
1 1 1 1 1 1 1 1 1 
1 1 1 1 1 1 1 1 1 
1 1 1 1 1 1 1 1 1 
1 1 1 1 1 1 1 1 1 
1 1 1 1 1 1 1 1 1 
1 1 1 1 1 1 1 1 1 
1 1 1 1 1 1 1 1 1 
1 1 1 1 1 1 1 1 1 
1 1 1 1 1 1 1 1 1 
1 1 1 1 1 1 1 1 1 
1 1 1 1 1 1 1 1 1 
1 1 1 1 1 1 1 1 1 
1 1 1 1 1 1 1 1 1 
1 1 1 1 1 1 1 1 1 
1 1 1 1 1 1 1 1 1 
1 1 1 1 1 1 1 1 1 
1 1 1 1 1 1 1 1 1 
1 1 1 1 1 1 1 1 1 
1 1 1 1 1 1 1 1 1 
1 1 1 1 1 1 1 1 1 
1 1 1 1 1 1 1 1 1 
1 1 1 1 1 1 1 1 1 
1 1 1 1 1 1 1 1 1 
1 1 1 1 1 1 1 1 1 
1 1 1 1 1 1 1 1 1 
1 1 1 1 1 1 1 1 1 
1 1 1 1 1 1 1 1 1 
1 1 1 1 1 1 1 1 1 
1 1 1 1 1 1 1 1 1 
1 1 1 1 1 1 1 1 1 
1 1 1 1 1 1 1 1 1 
1 1 1 1 1 1 1 1 1 
1 1 1 1 1 1 1 1 1 
1 1 1 1 1 1 1 1 1 
1 1 1 1 1 1 1 1 1 
1 1 1 1 1 1 1 1 1 
1 1 1 1 1 1 1 1 1 
1 1 1 1 1 1 1 1 1 
1 1 1 1 1 1 1 1 1 
1 1 1 1 1 1 1 1 1 
1 1 1 1 1 1 1 1 1 
1 1 1 1 1 1 1 1 1 
1 1 1 1 1 1 1 1 1 
1 1 1 1 1 1 1 1 1 
1 1 1 1 1 1 1 1 1 
1 1 1 1 1 1 1 1 1 
1 1 1 1 1 1 1 1 1 
1 1 1 1 1 1 1 1 1 
1 1 1 1 1 1 1 1 1 
1 1 1 1 1 1 1 1 1 
1 1 1 1 1 1 1 1 1 
1 1 1 1 1 1 1 1 1 
1 1 1 1 1 1 1 1 1 
1 1 1 1 1 1 1 1 1 
1 1 1 1 1 1 1 1 1 
1 1 1 1 1 1 1 1 1 
1 1 1 1 1 1 1 1 1 
1 1 1 1 1 1 1 1 1 
1 1 1 1 1 1 1 1 1 
1 1 1 1 1 1 1 1 1 
1 1 1 1 1 1 1 1 1 
1 1 1 1 1 1 1 1 1 
1 1 1 1 1 1 1 1 1 
1 1 1 1 1 1 1 1 1 
1 1 1 1 1 1 1 1 1 
1 1 1 1 1 1 1 1 1 
1 1 1 1 1 1 1 1 1 
1 1 1 1 1 1 1 1 1 
1 1 1 1 1 1 1 1 1 
1 1 1 1 1 1 1 1 1 
1 1 1 1 1 1 1 1 1 
1 1 1 1 1 1 1 1 1 
1 1 1 1 1 1 1 1 1 
1 1 1 1 1 1 1 1 1 
1 1 1 1 1 1 1 1 1 
1 1 1 1 1 1 1 1 1 
1 1 1 1 1 1 1 1 1 
1 1 1 1 1 1 1 1 1 
1 1 1 1 1 1 1 1 1 
1 1 1 1 1 1 1 1 1 
1 1 1 1 1 1 1 1 1 
1 1 1 1 1 1 1 1 1 
1 1 1 1 1 1 1 1 1 
1 1 1 1 1 1 1 1 1 
1 1 1 1 1 1 1 1 1 
1 1 1 1 1 1 1 1 1 
1 1 1 1 1 1 1 1 1 
1 1 1 1 1 1 1 1 1 
1 1 1 1 1 1 1 1 1 
1 1 1 1 1 1 1 1 1 
1 1 1 1 1 1 1 1 1 
1 1 1 1 1 1 1 1 1 
1 1 1 1 1 1 1 1 1 
1 1 1 1 1 1 1 1 1 
1 1 1 1 1 1 1 1 1 
1 1 1 1 1 1 1 1 1 
1 1 1 1 1 1 1 1 1 
1 1 1 1 1 1 1 1 1 
1 1 1 1 1 1 1 1 1 
1 1 1 1 1 1 1 1 1 
1 1 1 1 1 1 1 1 1 
1 1 1 1 1 1 1 1 1 
1 1 1 1 1 1 1 1 1 
1 1 1 1 1 1 1 1 1 
1 1 1 1 1 1 1 1 1 
1 1 1 1 1 1 1 1 1 
1 1 1 1 1 1 1 1 1 
1 1 1 1 1 1 1 1 1 
1 1 1 1 1 1 1 1 1 
1 1 1 1 1 1 1 1 1 
1 1 1 1 1 1 1 1 1 
1 1 1 1 1 1 1 1 1 
1 1 1 1 1 1 1 1 1 
1 1 1 1 1 1 1 1 1 
1 1 1 1 1 1 1 1 1 
1 1 1 1 1 1 1 1 1 
1 1 1 1 1 1 1 1 1 
1 1 1 1 1 1 1 1 1 
1 1 1 1 1 1 1 1 1 
1 1 1 1 1 1 1 1 1 
1 1 1 1 1 1 1 1 1 
1 1 1 1 1 1 1 1 1 
1 1 1 1 1 1 1 1 1 
1 1 1 1 1 1 1 1 1 
1 1 1 1 1 1 1 1 1 
1 1 1 1 1 1 1 1 1 
1 1 1 1 1 1 1 1 1 
1 1 1 1 1 1 1 1 1 
1 1 1 1 1 1 1 1 1 
1 1 1 1 1 1 1 1 1 
1 1 1 1 1 1 1 1 1 
1 1 1 1 1 1 1 1 1 
1 1 1 1 1 1 1 1 1 
1 1 1 1 1 1 1 1 1 
1 1 1 1 1 1 1 1 1 
1 1 1 1 1 1 1 1 1 
1 1 1 1 1 1 1 1 1 
1 1 1 1 1 1 1 1 1 
1 1 1 1 1 1 1 1 1 
1 1 1 1 1 1 1 1 1 
1 1 1 1 1 1 1 1 1 
1 1 1 1 1 1 1 1 1 
1 1 1 1 1 1 1 1 1 
1 1 1 1 1 1 1 1 1 
1 1 1 1 1 1 1 1 1 
1 1 1 1 1 1 1 1 1 
1 1 1 1 1 1 1 1 1 
1 1 1 1 1 1 1 1 1 
1 1 1 1 1 1 1 1 1 
1 1 1 1 1 1 1 1 1 
1 1 1 1 1 1 1 1 1 
1 1 1 1 1 1 1 1 1 
1 1 1 1 1 1 1 1 1 
1 1 1 1 1 1 1 1 1 
1 1 1 1 1 1 1 1 1 
1 1 1 1 1 1 1 1 1 
1 1 1 1 1 1 1 1 1 
1 1 1 1 1 1 1 1 1 
1 1 1 1 1 1 1 1 1 
1 1 1 1 1 1 1 1 1 
1 1 1 1 1 1 1 1 1 
1 1 1 1 1 1 1 1 1 
1 1 1 1 1 1 1 1 1 
1 1 1 1 1 1 1 1 1 
1 1 1 1 1 1 1 1 1 
1 1 1 1 1 1 1 1 1 
1 1 1 1 1 1 1 1 1 
1 1 1 1 1 1 1 1 1 
1 1 1 1 1 1 1 1 1 
1 1 1 1 1 1 1 1 1 
1 1 1 1 1 1 1 1 1 
1 1 1 1 1 1 1 1 1 
1 1 1 1 1 1 1 1 1 
1 1 1 1 1 1 1 1 1 
1 1 1 1 1 1 1 1 1 
1 1 1 1 1 1 1 1 1 
1 1 1 1 1 1 1 1 1 
1 1 1 1 1 1 1 1 1 
1 1 1 1 1 1 1 1 1 
1 1 1 1 1 1 1 1 1 
1 1 1 1 1 1 1 1 1 
1 1 1 1 1 1 1 1 1 
1 1 1 1 1 1 1 1 1 
1 1 1 1 1 1 1 1 1 
1 1 1 1 1 1 1 1 1 
1 1 1 1 1 1 1 1 1 
1 1 1 1 1 1 1 1 1 
1 1 1 1 1 1 1 1 1 
1 1 1 1 1 1 1 1 1 
1 1 1 1 1 1 1 1 1 
1 1 1 1 1 1 1 1 1 
1 1 1 1 1 1 1 1 1 
1 1 1 1 1 1 1 1 1 
1 1 1 1 1 1 1 1 1 
1 1 1 1 1 1 1 1 1 
1 1 1 1 1 1 1 1 1 
1 1 1 1 1 1 1 1 1 
1 1 1 1 1 1 1 1 1 
1 1 1 1 1 1 1 1 1 
1 1 1 1 1 1 1 1 1 
1 1 1 1 1 1 1 1 1 
1 1 1 1 1 1 1 1 1 
1 1 1 1 1 1 1 1 1 
1 1 1 1 1 1 1 1 1 
1 1 1 1 1 1 1 1 1 
1 1 1 1 1 1 1 1 1 
1 1 1 1 1 1 1 1 1 
1 1 1 1 1 1 1 1 1 
1 1 1 1 1 1 1 1 1 
1 1 1 1 1 1 1 1 1 
1 1 1 1 1 1 1 1 1 
1 1 1 1 1 1 1 1 1 
1 1 1 1 1 1 1 1 1 
1 1 1 1 1 1 1 1 1 
1 1 1 1 1 1 1 1 1 
1 1 1 1 1 1 1 1 1 
1 1 1 1 1 1 1 1 1 
1 1 1 1 1 1 1 1 1 
1 1 1 1 1 1 1 1 1 
1 1 1 1 1 1 1 1 1 
1 1 1 1 1 1 1 1 1 
1 1 1 1 1 1 1 1 1 
1 1 1 1 1 1 1 1 1 
1 1 1 1 1 1 1 1 1 
1 1 1 1 1 1 1 1 1 
1 1 1 1 1 1 1 1 1 
1 1 1 1 1 1 1 1 1 
1 1 1 1 1 1 1 1 1 
1 1 1 1 1 1 1 1 1 
1 1 1 1 1 1 1 1 1 
1 1 1 1 1 1 1 1 1 
1 1 1 1 1 1 1 1 1 
1 1 1 1 1 1 1 1 1 
1 1 1 1 1 1 1 1 1 
1 1 1 1 1 1 1 1 1 
1 1 1 1 1 1 1 1 1 
1 1 1 1 1 1 1 1 1 
1 1 1 1 1 1 1 1 1 
1 1 1 1 1 1 1 1 1 
1 1 1 1 1 1 1 1 1 
1 1 1 1 1 1 1 1 1 
1 1 1 1 1 1 1 1 1 
1 1 1 1 1 1 1 1 1 
1 1 1 1 1 1 1 1 1 
1 1 1 1 1 1 1 1 1 
1 1 1 1 1 1 1 1 1 
1 1 1 1 1 1 1 1 1 
1 1 1 1 1 1 1 1 1 
1 1 1 1 1 1 1 1 1 
1 1 1 1 1 1 1 1 1 
1 1 1 1 1 1 1 1 1 
1 1 1 1 1 1 1 1 1 
1 1 1 1 1 1 1 1 1 
1 1 1 1 1 1 1 1 1 
1 1 1 1 1 1 1 1 1 
1 1 1 1 1 1 1 1 1 
1 1 1 1 1 1 1 1 1 
1 1 1 1 1 1 1 1 1 
1 1 1 1 1 
NORMALS normals float
0 0 -1 0 -0.69874 -0.715376 -0.69874 0 -0.715376 
0.572769 -0.572769 -0.586406 -0.572769 0.572769 -0.586406 0.568294 -0.581825 -0.581825 
-0.577241 0.563497 -0.590985 0 -0.0232495 -0.99973 0.568294 -0.581825 -0.581825 
-0.0232432 0.0232432 -0.99946 -0.707011 0.0164421 -0.707011 0.581825 -0.568294 -0.581825 
0.0232495 0 -0.99973 0.581825 -0.568294 -0.581825 -0.0164421 0.707011 -0.707011 
-0.563497 0.577241 -0.590985 0.568294 -0.581825 -0.581825 -0.577241 0.563497 -0.590985 
0 -0.0232495 -0.99973 0.568294 -0.581825 -0.581825 -0.0232432 0.0232432 -0.99946 
-0.707011 0.0164421 -0.707011 0.581825 -0.568294 -0.581825 0.0232495 0 -0.99973 
0.581825 -0.568294 -0.581825 -0.0164421 0.707011 -0.707011 -0.563497 0.577241 -0.590985 
0.568294 -0.581825 -0.581825 -0.577241 0.563497 -0.590985 0 -0.0232495 -0.99973 
0.698643 -0.0166344 -0.715277 0 0 -1 -0.69874 0 -0.715376 
0.69874 0 -0.715376 0 0 -1 -0.69874 0 -0.715376 
0.572769 -0.572769 -0.586406 -0.0232432 0.0232432 -0.99946 -0.707011 0.0164421 -0.707011 
0.581825 -0.568294 -0.581825 0.0232495 0 -0.99973 0.707107 0 -0.707107 
-0.0164421 0.707011 -0.707011 0.0166344 0.698643 -0.715277 -0.0232432 -0.0232432 -0.99946 
-0.0164421 -0.707011 -0.707011 -0.707011 -0.0164421 -0.707011 0.0232495 0 -0.99973 
0.0166344 -0.698643 -0.715277 0.707107 0 -0.707107 0 0.0232495 -0.99973 
-0.577241 -0.563497 -0.590985 0.568294 0.581825 -0.581825 0.581825 0.568294 -0.581825 
0 0 -1 -0.572769 -0.572769 -0.586406 -0.69874 0 -0.715376 
0.568294 0.581825 -0.581825 0.572769 0.572769 -0.586406 0 0.69874 -0.715376 
-0.0164421 -0.707011 -0.707011 -0.0232432 -0.99946 -0.0232432 -0.57735 -0.57735 -0.57735 
0.0232432 -0.0232432 -0.99946 0.0232432 -0.99946 -0.0232432 0.99946 -0.0232432 -0.0232432 
-0.707011 -0.0164421 -0.707011 -0.57735 -0.57735 -0.57735 -0.57735 -0.57735 -0.57735 
0.581825 -0.568294 -0.581825 0.581825 -0.568294 -0.581825 -0.0232432 -0.0232432 -0.99946 
-0.57735 -0.57735 -0.57735 -0.707011 -0.0164421 -0.707011 0 0 -1 
-0.572769 0.572769 -0.586406 0.568294 -0.581825 -0.581825 0.568294 -0.581825 -0.581825 
0.0232432 -0.0232432 -0.99946 0.0232432 -0.99946 -0.0232432 0.99946 -0.0232432 -0.0232432 
-0.0232495 0 -0.99973 -0.707107 0 -0.707107 0 0 -1 
-0.69874 0 -0.715376 0.581825 -0.568294 -0.581825 0.581825 -0.568294 -0.581825 
-0.0232495 0 -0.99973 -0.707107 0 -0.707107 0 0 -1 
0 0 -1 0 0.69874 -0.715376 -0.572769 0.572769 -0.586406 
0.568294 -0.581825 -0.581825 0.568294 -0.581825 -0.581825 0.0232432 -0.0232432 -0.99946 
0.0232432 -0.99946 -0.0232432 0.99946 -0.0232432 -0.0232432 -0.0232495 0 -0.99973 
-0.707107 0 -0.707107 0 0 -1 0 0 -1 
0 0 -1 -0.69874 0 -0.715376 0.581825 -0.568294 -0.581825 
0.581825 -0.568294 -0.581825 -0.0232495 0 -0.99973 -0.99973 0 -0.0232495 
0 0 -1 0 0 -1 0 0 -1 
0 0 -1 0 0.69874 -0.715376 -0.572769 0.572769 -0.586406 
0.698643 -0.0166344 -0.715277 0.568294 -0.581825 -0.581825 0.0232432 -0.0232432 -0.99946 
0.0232432 -0.99946 -0.0232432 0.99946 -0.0232432 -0.0232432 -0.0232495 0 -0.99973 
-0.99973 0 -0.0232495 0 0 -1 0 0 -1 
0 0 -1 0 0 -1 0 0 -1 
-0.69874 0 -0.715376 0.69874 0 -0.715376 0.0232495 0 -0.99973 
0.99973 0 -0.0232495 -0.0232495 0 -0.99973 -0.99973 0 -0.0232495 
0 0 -1 0 0 -1 0 0 -1 
0 0 -1 0 0 -1 -0.69874 0 -0.715376 
0.572769 -0.572769 -0.586406 0.0232495 0 -0.99973 0.99973 0 -0.0232495 
-0.0232432 0.0232432 -0.99946 -0.99946 0.0232432 -0.0232432 0 0.0232495 -0.99973 
0 0 -1 0 0 -1 0 0 -1 
0 0 -1 -0.69874 0 -0.715376 0.707107 0 -0.707107 
0.99973 0 -0.0232495 -0.0232432 0.99946 -0.0232432 -0.698643 0.715277 -0.0166344 
-0.715277 0.698643 -0.0166344 -0.0232495 0 -0.99973 0 0 -1 
0 0 -1 0 0 -1 0 0 -1 
0 0.69874 -0.715376 0 0.69874 -0.715376 0.0232495 0 -0.99973 
0.99973 0 -0.0232495 -0.0232495 0 -0.99973 -0.99973 0 -0.0232495 
0 0 -1 0 0 -1 0 0 -1 
0 0 -1 0 0 -1 0 0 -1 
0.0232495 0 -0.99973 0.99973 0 -0.0232495 -0.0232495 0 -0.99973 
-0.99973 0 -0.0232495 0 0 -1 0 0 -1 
0 0 -1 0 0 -1 0 -0.69874 -0.715376 
0 -0.69874 -0.715376 0.0232495 0 -0.99973 0.99973 0 -0.0232495 
-0.0232432 0.0232432 -0.99946 -0.99946 0.0232432 -0.0232432 0 0.0232495 -0.99973 
0 0 -1 0 0 -1 -0.69874 0 -0.715376 