# vtk DataFile Version 3.0
vtk output
ASCII
DATASET POLYDATA
POINTS 2938 float
97 70 11.0094 97 69.0094 12 96.0094 70 12 
98 70 11.0094 98 69.0094 12 99 70 11.0094 
99 69.0094 12 100 70 11.0094 100 69.0094 12 
101 70 11.0094 101 69.0094 12 102 70 11.0094 
102 69.0094 12 102.991 70 12 97 71 11.0094 
96.0094 71 12 98 71 11.0094 99 71 11.0094 
100 71 11.0094 101 71 11.0094 102 71 11.0094 
102.991 71 12 97 72 11.0094 96.0094 72 12 
98 72 11.0094 99 72 11.0094 100 72 11.0094 
101 72 11.0094 102 72 11.0094 102.991 72 12 
97 73 11.0094 96.0094 73 12 98 73 11.0094 
99 73 11.0094 100 73 11.0094 101 73 11.0094 
102 73 11.0094 102.991 73 12 97 74 11.0094 
96.0094 74 12 98 74 11.0094 99 74 11.0094 
100 74 11.0094 101 74 11.0094 102 74 11.0094 
102.991 74 12 97 75 11.0094 96.0094 75 12 
98 75 11.0094 99 75 11.0094 100 75 11.0094 
101 75 11.0094 102 75 11.0094 102.991 75 12 
97 76 11.0094 96.0094 76 12 98 76 11.0094 
99 76 11.0094 100 76 11.0094 101 76 11.0094 
102 76 11.0094 102.991 76 12 97 77 11.0094 
96.0094 77 12 98 77 11.0094 99 77 11.0094 
100 77 11.0094 101 77 11.0094 102 77 11.0094 
102.991 77 12 97 78 11.0094 96.0094 78 12 
98 78 11.0094 99 78 11.0094 100 78 11.0094 
101 78 11.0094 102 78 11.0094 103 77.0094 12 
103 78 11.0094 104 78 11.0094 104 77.0094 12 
104.991 78 12 97 79 11.0094 96.0094 79 12 
98 79 11.0094 99 79 11.0094 100 79 11.0094 
101 79 11.0094 102 79 11.0094 103 79 11.0094 
103.991 79 12 104 78.9906 12 97 79.9906 12 
98 79.9906 12 99 79.9906 12 100 79.9906 12 
101 79.9906 12 102 79.9906 12 103 79.9906 12 
96 69 12.0094 96 68.0094 13 95.0094 69 13 
97 69 12.0094 97 68.0094 13 98 69 12.0094 
98 68.0094 13 99 69 12.0094 99 68.0094 13 
100 69 12.0094 100 68.0094 13 101 69 12.0094 
101 68.0094 13 101.991 69 13 96 70 12.0094 
95.0094 70 13 102 69.0094 13 102.991 70 13 
96 71 12.0094 95.0094 71 13 102.991 71 13 
96 72 12.0094 95.0094 72 13 102.991 72 13 
96 73 12.0094 95.0094 73 13 102.991 73 13 
96 74 12.0094 95.0094 74 13 102.991 74 13 
96 75 12.0094 95.0094 75 13 102.991 75 13 
96 76 12.0094 95.0094 76 13 102.991 76 13 
96 77 12.0094 95.0094 77 13 103 76.0094 13 
103 77 12.0094 103.991 77 13 96 78 12.0094 
95.0094 78 13 104 77.0094 13 104.991 78 13 
96 78.9906 13 96.0094 79 13 103.991 79 13 
104 78.9906 13 97 79.9906 13 98 79.9906 13 
99 79.9906 13 100 79.9906 13 101 79.9906 13 
102 80 12.0094 101.009 80 13 102.991 80 13 
103 79.9906 13 102 81 12.0094 101.009 81 13 
103 80.0094 13 103 81 12.0094 103.991 81 13 
102 81.9906 13 103 81.9906 13 104 81.0094 13 
103.009 82 13 104 82 12.0094 104.991 82 13 
104 82.9906 13 95 66 13.0094 95 65.0094 14 
94.0094 66 14 96 66 13.0094 96 65.0094 14 
97 66 13.0094 97 65.0094 14 98 66 13.0094 
98 65.0094 14 98.9906 66 14 94 67 13.0094 
94 66.0094 14 93.0094 67 14 95 67 13.0094 
96 67 13.0094 97 67 13.0094 98 67 13.0094 
98.9906 67 14 93 68 13.0094 93 67.0094 14 
92.0094 68 14 94 68 13.0094 95 68 13.0094 
96 68 13.0094 97 68 13.0094 98 68 13.0094 
99 67.0094 14 99 68 13.0094 100 68 13.0094 
100 67.0094 14 100.991 68 14 93 69 13.0094 
92.0094 69 14 94 69 13.0094 95 69 13.0094 
100.991 69 14 101 69 13.9906 93 70 13.0094 
92.0094 70 14 94 70 13.0094 95 70 13.0094 
101 69.0094 14 102 69.0094 14 102.991 70 14 
93 71 13.0094 92.0094 71 14 94 71 13.0094 
95 71 13.0094 102.991 71 14 93 72 13.0094 
92.0094 72 14 94 72 13.0094 95 72 13.0094 
102.991 72 14 93 73 13.0094 92.0094 73 14 
94 73 13.0094 95 73 13.0094 102.991 73 14 
93 74 13.0094 92.0094 74 14 94 74 13.0094 
95 74 13.0094 103 73.0094 14 103 74 13.0094 
104 74 13.0094 104 73.0094 14 104.991 74 14 
93 75 13.0094 92.0094 75 14 94 75 13.0094 
95 75 13.0094 103 75 13.0094 104 75 13.0094 
104.991 75 14 93 75.9906 14 94 75.9906 14 
94.0094 76 14 95 76 13.0094 103 76 13.0094 
104 76 13.0094 104.991 76 14 95 77 13.0094 
94.0094 77 14 104 77 13.0094 104.991 77 14 
95 78 13.0094 94.0094 78 14 104.991 78 14 
95 79 13.0094 94.0094 79 14 96 79 13.0094 
104 79 13.0094 104.991 79 14 95 79.9906 14 
96 79.9906 14 97 80 13.0094 96.0094 80 14 
98 80 13.0094 99 80 13.0094 100 80 13.0094 
101 80 13.0094 103 80 13.0094 104 80 13.0094 
104.991 80 14 97 81 13.0094 96.0094 81 14 
98 81 13.0094 99 81 13.0094 100 81 13.0094 
101 81 13.0094 104 81 13.0094 104.991 81 14 
97 81.9906 14 98 81.9906 14 98.0094 82 14 
99 82 13.0094 100 82 13.0094 101 82 13.0094 
102 82 13.0094 103 82 13.0094 105 82 13.0094 
105 81.0094 14 106 82 13.0094 106 81.0094 14 
106.991 82 14 99 83 13.0094 98.0094 83 14 
100 83 13.0094 101 83 13.0094 102 83 13.0094 
103 83 13.0094 104 83 13.0094 105 83 13.0094 
105.991 83 14 106 82.9906 14 99 83.9906 14 
100 83.9906 14 101 83.9906 14 102 83.9906 14 
102.009 84 14 103 84 13.0094 104 84 13.0094 
104.991 84 14 105 83.9906 14 103 85 13.0094 
102.009 85 14 103.991 85 14 104 84.9906 14 
103 85.9906 14 96 65 14.0094 96 64.0094 15 
95.0094 65 15 97 65 14.0094 97 64.0094 15 
97.9906 65 15 94 66 14.0094 94 65.0094 15 
93.0094 66 15 95 65.0094 15 98 65.0094 15 
98.9906 66 15 93 67 14.0094 93 66.0094 15 
92.0094 67 15 98.9906 67 15 92 68 14.0094 
92 67.0094 15 91.0094 68 15 99 67.0094 15 
100 67.0094 15 100.991 68 15 92 69 14.0094 
91.0094 69 15 100.991 69 15 92 70 14.0094 
91.0094 70 15 101 69.0094 15 102 69.0094 15 
102.991 70 15 92 71 14.0094 91.0094 71 15 
102.991 71 15 92 72 14.0094 91.0094 72 15 
102.991 72 15 92 73 14.0094 91.0094 73 15 
103 72.0094 15 103 73 14.0094 103.991 73 15 
92 74 14.0094 91.0094 74 15 104 73.0094 15 
104.991 74 15 92 74.9906 15 92.0094 75 15 
104.991 75 15 93 75.9906 15 94 76 14.0094 
93.0094 76 15 104.991 76 15 94 77 14.0094 
93.0094 77 15 104.991 77 15 94 77.9906 15 
94.0094 78 15 104.991 78 15 94.0094 79 15 
104.991 79 15 95 79.9906 15 96 79.9906 15 
96.0094 80 15 104.991 80 15 96.0094 81 15 
105 80.0094 15 105 81 14.0094 105.991 81 15 
97 81.9906 15 98 81.9906 15 98.0094 82 15 
106 81.0094 15 106.991 82 15 98.0094 83 15 
105.991 83 15 106 82.9906 15 99 83.9906 15 
100 83.9906 15 101 83.9906 15 102 84 14.0094 
101.009 84 15 104.991 84 15 105 83.9906 15 
102 84.9906 15 102.009 85 15 103.991 85 15 
104 84.9906 15 103 85.9906 15 97 64 15.0094 
97 63.0094 16 96.0094 64 16 98 64 15.0094 
98 63.0094 16 98.9906 64 16 96 64.0094 16 
95.0094 65 16 98 65 15.0094 98.9906 65 16 
93 66 15.0094 93 65.0094 16 92.0094 66 16 
94 65.0094 16 95 65.0094 16 98.9906 66 16 
92 67 15.0094 92 66.0094 16 91.0094 67 16 
98.9906 67 16 91 68 15.0094 91 67.0094 16 
90.0094 68 16 99 67.0094 16 100 67.0094 16 
100.991 68 16 91 69 15.0094 90.0094 69 16 
100.991 69 16 91 70 15.0094 90.0094 70 16 
101 69.0094 16 102 69.0094 16 102.991 70 16 
91 71 15.0094 90.0094 71 16 102.991 71 16 
91 72 15.0094 90.0094 72 16 103 71.0094 16 
103 72 15.0094 104 72 15.0094 104 71.0094 16 
104.991 72 16 91 73 15.0094 90.0094 73 16 
104 73 15.0094 104.991 73 16 91 74 15.0094 
90.0094 74 16 104.991 74 16 91 75 15.0094 
90.0094 75 16 92 75 15.0094 104.991 75 16 
91 75.9906 16 92 75.9906 16 93 76 15.0094 
92.0094 76 16 105 75.0094 16 105 76 15.0094 
106 76 15.0094 106 75.0094 16 106.991 76 16 
93 77 15.0094 92.0094 77 16 105 77 15.0094 
106 77 15.0094 106.991 77 16 93 77.9906 16 
94 77.9906 16 94.0094 78 16 105 78 15.0094 
106 78 15.0094 106.991 78 16 94.0094 79 16 
105 79 15.0094 106 79 15.0094 106.991 79 16 
95 79.9906 16 96 79.9906 16 96.0094 80 16 
105 80 15.0094 106 80 15.0094 106.991 80 16 
96.0094 81 16 106 81 15.0094 106.991 81 16 
97 81.9906 16 98 81.9906 16 98.0094 82 16 
106.991 82 16 98.0094 83 16 106 83 15.0094 
106.991 83 16 99 83.9906 16 100 83.9906 16 
101 84 15.0094 100.009 84 16 105 84 15.0094 
106 84 15.0094 106.991 84 16 101 85 15.0094 
100.009 85 16 102 85 15.0094 104 85 15.0094 
105 85 15.0094 105.991 85 16 106 84.9906 16 
101 85.9906 16 102 85.9906 16 103 85.9906 16 
104 85.9906 16 105 85.9906 16 96 64 16.0094 
96 63.0094 17 95.0094 64 17 97 63.0094 17 
98 63.0094 17 98.9906 64 17 93 65 16.0094 
93 64.0094 17 92.0094 65 17 94 65 16.0094 
94 64.0094 17 95 65 16.0094 95 64.0094 17 
98.9906 65 17 92 66 16.0094 92 65.0094 17 
91.0094 66 17 98.9906 66 17 91 67 16.0094 
91 66.0094 17 90.0094 67 17 99 66.0094 17 
99 67 16.0094 100 67 16.0094 100 66.0094 17 
100.991 67 17 90.0094 68 17 100.991 68 17 
90.0094 69 17 101 68.0094 17 101 69 16.0094 
101.991 69 17 90.0094 70 17 102 69.0094 17 
102.991 70 17 90.0094 71 17 103 70.0094 17 
103 71 16.0094 103.991 71 17 90.0094 72 17 
104 71.0094 17 104.991 72 17 90.0094 73 17 
104.991 73 17 90.0094 74 17 104.991 74 17 
90.0094 75 17 105 74.0094 17 105 75 16.0094 
105.991 75 17 91 75.9906 17 92 75.9906 17 
92.0094 76 17 106 75.0094 17 106.991 76 17 
92.0094 77 17 106.991 77 17 93 77.9906 17 
94 77.9906 17 94.0094 78 17 106.991 78 17 
94.0094 79 17 106.991 79 17 95 79.9906 17 
96 79.9906 17 96.0094 80 17 106.991 80 17 
96.0094 81 17 106.991 81 17 97 81.9906 17 
98 81.9906 17 98.0094 82 17 106.991 82 17 
98.0094 83 17 106.991 83 17 99 83.9906 17 
100 83.9906 17 100.009 84 17 106.991 84 17 
100.009 85 17 106 85 16.0094 106.991 85 17 
101 85.9906 17 102 85.9906 17 103 85.9906 17 
104 85.9906 17 105 85.9906 17 106 85.9906 17 
93 64 17.0094 93 63.0094 18 92.0094 64 18 
94 64 17.0094 94 63.0094 18 95 64 17.0094 
95 63.0094 18 96 63.0094 18 97 63.0094 18 
98 63.0094 18 98.9906 64 18 92 65 17.0094 
92 64.0094 18 91.0094 65 18 98.9906 65 18 
91 66 17.0094 91 65.0094 18 90.0094 66 18 
99 65.0094 18 99 66 17.0094 100 66 17.0094 
100 65.0094 18 101 66 17.0094 101 65.0094 18 
102 66 17.0094 102 65.0094 18 102.991 66 18 
90.0094 67 18 101 67 17.0094 102 67 17.0094 
102.991 67 18 90.0094 68 18 101 68 17.0094 
102 68 17.0094 102.991 68 18 90.0094 69 18 
102 69 17.0094 102.991 69 18 90.0094 70 18 
103 70 17.0094 103 69.0094 18 104 70 17.0094 
104 69.0094 18 104.991 70 18 90.0094 71 18 
104 71 17.0094 104.991 71 18 90.0094 72 18 
105 72 17.0094 105 71.0094 18 106 72 17.0094 
106 71.0094 18 106.991 72 18 90.0094 73 18 
105 73 17.0094 106 73 17.0094 106.991 73 18 
90.0094 74 18 105 74 17.0094 106 74 17.0094 
106.991 74 18 90.0094 75 18 106 75 17.0094 
106.991 75 18 91 75.9906 18 92 75.9906 18 
[...]
POINT_DATA 2938
SCALARS scalars float
LOOKUP_TABLE default
1 1 1 1 1 1 1 1 1 
1 1 1 1 1 1 1 1 1 
1 1 1 1 1 1 1 1 1 
1 1 1 1 1 1 1 1 1 
1 1 1 1 1 1 1 1 1 
1 1 1 1 1 1 1 1 1 
1 1 1 1 1 1 1 1 1 
1 1 1 1 1 1 1 1 1 
1 1 1 1 1 1 1 1 1 
1 1 1 1 1 1 1 1 1 
1 1 1 1 1 1 1 1 1 
1 1 1 1 1 1 1 1 1 
1 1 1 1 1 1 1 1 1 
1 1 1 1 1 1 1 1 1 
1 1 1 1 1 1 1 1 1 
1 1 1 1 1 1 1 1 1 
1 1 1 1 1 1 1 1 1 
1 1 1 1 1 1 1 1 1 
1 1 1 1 1 1 1 1 1 
1 1 1 1 1 1 1 1 1 
1 1 1 1 1 1 1 1 1 
1 1 1 1 1 1 1 1 1 
1 1 1 1 1 1 1 1 1 
1 1 1 1 1 1 1 1 1 
1 1 1 1 1 1 1 1 1 
1 1 1 1 1 1 1 1 1 
1 1 1 1 1 1 1 1 1 
1 1 1 1 1 1 1 1 1 
1 1 1 1 1 1 1 1 1 
1 1 1 1 1 1 1 1 1 
1 1 1 1 1 1 1 1 1 
1 1 1 1 1 1 1 1 1 
1 1 1 1 1 1 1 1 1 
1 1 1 1 1 1 1 1 1 
1 1 1 1 1 1 1 1 1 
1 1 1 1 1 1 1 1 1 
1 1 1 1 1 1 1 1 1 
1 1 1 1 1 1 1 1 1 
1 1 1 1 1 1 1 1 1 
1 1 1 1 1 1 1 1 1 
1 1 1 1 1 1 1 1 1 
1 1 1 1 1 1 1 1 1 
1 1 1 1 1 1 1 1 1 
1 1 1 1 1 1 1 1 1 
1 1 1 1 1 1 1 1 1 
1 1 1 1 1 1 1 1 1 
1 1 1 1 1 1 1 1 1 
1 1 1 1 1 1 1 1 1 
1 1 1 1 1 1 1 1 1 
1 1 1 1 1 1 1 1 1 
1 1 1 1 1 1 1 1 1 
1 1 1 1 1 1 1 1 1 
1 1 1 1 1 1 1 1 1 
1 1 1 1 1 1 1 1 1 
1 1 1 1 1 1 1 1 1 
1 1 1 1 1 1 1 1 1 
1 1 1 1 1 1 1 1 1 
1 1 1 1 1 1 1 1 1 
1 1 1 1 1 1 1 1 1 
1 1 1 1 1 1 1 1 1 
1 1 1 1 1 1 1 1 1 
1 1 1 1 1 1 1 1 1 
1 1 1 1 1 1 1 1 1 
1 1 1 1 1 1 1 1 1 
1 1 1 1 1 1 1 1 1 
1 1 1 1 1 1 1 1 1 
1 1 1 1 1 1 1 1 1 
1 1 1 1 1 1 1 1 1 
1 1 1 1 1 1 1 1 1 
1 1 1 1 1 1 1 1 1 
1 1 1 1 1 1 1 1 1 
1 1 1 1 1 1 1 1 1 
1 1 1 1 1 1 1 1 1 
1 1 1 1 1 1 1 1 1 
1 1 1 1 1 1 1 1 1 
1 1 1 1 1 1 1 1 1 
1 1 1 1 1 1 1 1 1 
1 1 1 1 1 1 1 1 1 
1 1 1 1 1 1 1 1 1 
1 1 1 1 1 1 1 1 1 
1 1 1 1 1 1 1 1 1 
1 1 1 1 1 1 1 1 1 
1 1 1 1 1 1 1 1 1 
1 1 1 1 1 1 1 1 1 
1 1 1 1 1 1 1 1 1 
1 1 1 1 1 1 1 1 1 
1 1 1 1 1 1 1 1 1 
1 1 1 1 1 1 1 1 1 
1 1 1 1 1 1 1 1 1 
1 1 1 1 1 1 1 1 1 
1 1 1 1 1 1 1 1 1 
1 1 1 1 1 1 1 1 1 
1 1 1 1 1 1 1 1 1 
1 1 1 1 1 1 1 1 1 
1 1 1 1 1 1 1 1 1 
1 1 1 1 1 1 1 1 1 
1 1 1 1 1 1 1 1 1 
1 1 1 1 1 1 1 1 1 
1 1 1 1 1 1 1 1 1 
1 1 1 1 1 1 1 1 1 
1 1 1 1 1 1 1 1 1 
1 1 1 1 1 1 1 1 1 
1 1 1 1 1 1 1 1 1 
1 1 1 1 1 1 1 1 1 
1 1 1 1 1 1 1 1 1 
1 1 1 1 1 1 1 1 1 
1 1 1 1 1 1 1 1 1 
1 1 1 1 1 1 1 1 1 
1 1 1 1 1 1 1 1 1 
1 1 1 1 1 1 1 1 1 
1 1 1 1 1 1 1 1 1 
1 1 1 1 1 1 1 1 1 
1 1 1 1 1 1 1 1 1 
1 1 1 1 1 1 1 1 1 
1 1 1 1 1 1 1 1 1 
1 1 1 1 1 1 1 1 1 
1 1 1 1 1 1 1 1 1 
1 1 1 1 1 1 1 1 1 
1 1 1 1 1 1 1 1 1 
1 1 1 1 1 1 1 1 1 
1 1 1 1 1 1 1 1 1 
1 1 1 1 1 1 1 1 1 
1 1 1 1 1 1 1 1 1 
1 1 1 1 1 1 1 1 1 
1 1 1 1 1 1 1 1 1 
1 1 1 1 1 1 1 1 1 
1 1 1 1 1 1 1 1 1 
1 1 1 1 1 1 1 1 1 
1 1 1 1 1 1 1 1 1 
1 1 1 1 1 1 1 1 1 
1 1 1 1 1 1 1 1 1 
1 1 1 1 1 1 1 1 1 
1 1 1 1 1 1 1 1 1 
1 1 1 1 1 1 1 1 1 
1 1 1 1 1 1 1 1 1 
1 1 1 1 1 1 1 1 1 
1 1 1 1 1 1 1 1 1 
1 1 1 1 1 1 1 1 1 
1 1 1 1 1 1 1 1 1 
1 1 1 1 1 1 1 1 1 
1 1 1 1 1 1 1 1 1 
1 1 1 1 1 1 1 1 1 
1 1 1 1 1 1 1 1 1 
1 1 1 1 1 1 1 1 1 
1 1 1 1 1 1 1 1 1 
1 1 1 1 1 1 1 1 1 
1 1 1 1 1 1 1 1 1 
1 1 1 1 1 1 1 1 1 
1 1 1 1 1 1 1 1 1 
1 1 1 1 1 1 1 1 1 
1 1 1 1 1 1 1 1 1 
1 1 1 1 1 1 1 1 1 
1 1 1 1 1 1 1 1 1 
1 1 1 1 1 1 1 1 1 
1 1 1 1 1 1 1 1 1 
1 1 1 1 1 1 1 1 1 
1 1 1 1 1 1 1 1 1 
1 1 1 1 1 1 1 1 1 
1 1 1 1 1 1 1 1 1 
1 1 1 1 1 1 1 1 1 
1 1 1 1 1 1 1 1 1 
1 1 1 1 1 1 1 1 1 
1 1 1 1 1 1 1 1 1 
1 1 1 1 1 1 1 1 1 
1 1 1 1 1 1 1 1 1 
1 1 1 1 1 1 1 1 1 
1 1 1 1 1 1 1 1 1 
1 1 1 1 1 1 1 1 1 
1 1 1 1 1 1 1 1 1 
1 1 1 1 1 1 1 1 1 
1 1 1 1 1 1 1 1 1 
1 1 1 1 1 1 1 1 1 
1 1 1 1 1 1 1 1 1 
1 1 1 1 1 1 1 1 1 
1 1 1 1 1 1 1 1 1 
1 1 1 1 1 1 1 1 1 
1 1 1 1 1 1 1 1 1 
1 1 1 1 1 1 1 1 1 
1 1 1 1 1 1 1 1 1 
1 1 1 1 1 1 1 1 1 
1 1 1 1 1 1 1 1 1 
1 1 1 1 1 1 1 1 1 
1 1 1 1 1 1 1 1 1 
1 1 1 1 1 1 1 1 1 
1 1 1 1 1 1 1 1 1 
1 1 1 1 1 1 1 1 1 
1 1 1 1 1 1 1 1 1 
1 1 1 1 1 1 1 1 1 
1 1 1 1 1 1 1 1 1 
1 1 1 1 1 1 1 1 1 
1 1 1 1 1 1 1 1 1 
1 1 1 1 1 1 1 1 1 
1 1 1 1 1 1 1 1 1 
1 1 1 1 1 1 1 1 1 
1 1 1 1 1 1 1 1 1 
1 1 1 1 1 1 1 1 1 
1 1 1 1 1 1 1 1 1 
1 1 1 1 1 1 1 1 1 
1 1 1 1 1 1 1 1 1 
1 1 1 1 1 1 1 1 1 
1 1 1 1 1 1 1 1 1 
1 1 1 1 1 1 1 1 1 
1 1 1 1 1 1 1 1 1 
1 1 1 1 1 1 1 1 1 
1 1 1 1 1 1 1 1 1 
1 1 1 1 1 1 1 1 1 
1 1 1 1 1 1 1 1 1 
1 1 1 1 1 1 1 1 1 
1 1 1 1 1 1 1 1 1 
1 1 1 1 1 1 1 1 1 
1 1 1 1 1 1 1 1 1 
1 1 1 1 1 1 1 1 1 
1 1 1 1 1 1 1 1 1 
1 1 1 1 1 1 1 1 1 
1 1 1 1 1 1 1 1 1 
1 1 1 1 1 1 1 1 1 
1 1 1 1 1 1 1 1 1 
1 1 1 1 1 1 1 1 1 
1 1 1 1 1 1 1 1 1 
1 1 1 1 1 1 1 1 1 
1 1 1 1 1 1 1 1 1 
1 1 1 1 1 1 1 1 1 
1 1 1 1 1 1 1 1 1 
1 1 1 1 1 1 1 1 1 
1 1 1 1 1 1 1 1 1 
1 1 1 1 1 1 1 1 1 
1 1 1 1 1 1 1 1 1 
1 1 1 1 1 1 1 1 1 
1 1 1 1 1 1 1 1 1 
1 1 1 1 1 1 1 1 1 
1 1 1 1 1 1 1 1 1 
1 1 1 1 1 1 1 1 1 
1 1 1 1 1 1 1 1 1 
1 1 1 1 1 1 1 1 1 
1 1 1 1 1 1 1 1 1 
1 1 1 1 1 1 1 1 1 
1 1 1 1 1 1 1 1 1 
1 1 1 1 1 1 1 1 1 
1 1 1 1 1 1 1 1 1 
1 1 1 1 1 1 1 1 1 
1 1 1 1 1 1 1 1 1 
1 1 1 1 1 1 1 1 1 
1 1 1 1 1 1 1 1 1 
1 1 1 1 1 1 1 1 1 
1 1 1 1 1 1 1 1 1 
1 1 1 1 1 1 1 1 1 
1 1 1 1 1 1 1 1 1 
1 1 1 1 1 1 1 1 1 
1 1 1 1 1 1 1 1 1 
1 1 1 1 1 1 1 1 1 
1 1 1 1 1 1 1 1 1 
1 1 1 1 1 1 1 1 1 
1 1 1 1 1 1 1 1 1 
1 1 1 1 1 1 1 1 1 
1 1 1 1 1 1 1 1 1 
1 1 1 1 1 1 1 1 1 
1 1 1 1 1 1 1 1 1 
1 1 1 1 1 1 1 1 1 
1 1 1 1 1 1 1 1 1 
1 1 1 1 1 1 1 1 1 
1 1 1 1 1 1 1 1 1 
1 1 1 1 1 1 1 1 1 
1 1 1 1 1 1 1 1 1 
1 1 1 1 1 1 1 1 1 
1 1 1 1 1 1 1 1 1 
1 1 1 1 1 1 1 1 1 
1 1 1 1 1 1 1 1 1 
1 1 1 1 1 1 1 1 1 
1 1 1 1 1 1 1 1 1 
1 1 1 1 1 1 1 1 1 
1 1 1 1 1 1 1 1 1 
1 1 1 1 1 1 1 1 1 
1 1 1 1 1 1 1 1 1 
1 1 1 1 1 1 1 1 1 
1 1 1 1 1 1 1 1 1 
1 1 1 1 1 1 1 1 1 
1 1 1 1 1 1 1 1 1 
1 1 1 1 1 1 1 1 1 
1 1 1 1 1 1 1 1 1 
1 1 1 1 1 1 1 1 1 
1 1 1 1 1 1 1 1 1 
1 1 1 1 1 1 1 1 1 
1 1 1 1 1 1 1 1 1 
1 1 1 1 1 1 1 1 1 
1 1 1 1 1 1 1 1 1 
1 1 1 1 1 1 1 1 1 
1 1 1 1 1 1 1 1 1 
1 1 1 1 1 1 1 1 1 
1 1 1 1 1 1 1 1 1 
1 1 1 1 1 1 1 1 1 
1 1 1 1 1 1 1 1 1 
1 1 1 1 1 1 1 1 1 
1 1 1 1 1 1 1 1 1 
1 1 1 1 1 1 1 1 1 
1 1 1 1 1 1 1 1 1 
1 1 1 1 1 1 1 1 1 
1 1 1 1 1 1 1 1 1 
1 1 1 1 1 1 1 1 1 
1 1 1 1 1 1 1 1 1 
1 1 1 1 1 1 1 1 1 
1 1 1 1 1 1 1 1 1 
1 1 1 1 1 1 1 1 1 
1 1 1 1 1 1 1 1 1 
1 1 1 1 1 1 1 1 1 
1 1 1 1 1 1 1 1 1 
1 1 1 1 1 1 1 1 1 
1 1 1 1 1 1 1 1 1 
1 1 1 1 1 1 1 1 1 
1 1 1 1 1 1 1 1 1 
1 1 1 1 1 1 1 1 1 
1 1 1 1 1 1 1 1 1 
1 1 1 1 1 1 1 1 1 
1 1 1 1 1 1 1 1 1 
1 1 1 1 1 1 1 1 1 
1 1 1 1 1 1 1 1 1 
1 1 1 1 1 1 1 1 1 
1 1 1 1 1 1 1 1 1 
1 1 1 1 1 1 1 1 1 
1 1 1 1 1 1 1 1 1 
1 1 1 1 1 1 1 1 1 
1 1 1 1 1 1 1 1 1 
1 1 1 1 1 1 1 1 1 
1 1 1 1 1 1 1 1 1 
1 1 1 1 1 1 1 1 1 
1 1 1 1 1 1 1 1 1 
1 1 1 1 1 1 1 1 1 
1 1 1 1 
NORMALS normals float
-0.00943312 -0.00943312 -0.999911 -0.00667067 -0.707091 -0.707091 -0.707091 -0.00667067 -0.707091 
0 -0.00943354 -0.999955 0 -0.707107 -0.707107 0 -0.00943354 -0.999955 
0 -0.707107 -0.707107 0 -0.00943354 -0.999955 0 -0.707107 -0.707107 
0 -0.00943354 -0.999955 0 -0.707107 -0.707107 0.00943312 -0.00943312 -0.999911 
0.00943312 -0.999911 -0.00943312 0.999911 -0.00943312 -0.00943312 -0.00943354 0 -0.999955 
-0.707107 0 -0.707107 0 0 -1 0 0 -1 
0 0 -1 0 0 -1 0.00943354 0 -0.999955 
0.999955 0 -0.00943354 -0.00943354 0 -0.999955 -0.707107 0 -0.707107 
0 0 -1 0 0 -1 0 0 -1 
0 0 -1 0.00943354 0 -0.999955 0.999955 0 -0.00943354 
-0.00943354 0 -0.999955 -0.707107 0 -0.707107 0 0 -1 
0 0 -1 0 0 -1 0 0 -1 
0.00943354 0 -0.999955 0.999955 0 -0.00943354 -0.00943354 0 -0.999955 
-0.707107 0 -0.707107 0 0 -1 0 0 -1 
0 0 -1 0 0 -1 0.00943354 0 -0.999955 
0.999955 0 -0.00943354 -0.00943354 0 -0.999955 -0.707107 0 -0.707107 
0 0 -1 0 0 -1 0 0 -1 
0 0 -1 0.00943354 0 -0.999955 0.999955 0 -0.00943354 
-0.00943354 0 -0.999955 -0.707107 0 -0.707107 0 0 -1 
0 0 -1 0 0 -1 0 0 -1 
0.00943354 0 -0.999955 0.999955 0 -0.00943354 -0.00943354 0 -0.999955 
-0.707107 0 -0.707107 0 0 -1 0 0 -1 
0 0 -1 0 0 -1 0.00943354 0 -0.999955 
0.579166 -0.573702 -0.579166 -0.00943354 0 -0.999955 -0.707107 0 -0.707107 
0 0 -1 0 0 -1 0 0 -1 
0 0 -1 0 0 -1 0.573702 -0.579166 -0.579166 
0 -0.00943354 -0.999955 0.00943354 0 -0.999955 0.00952295 -0.999909 -0.00952295 
0.999955 0 -0.00943354 -0.00943312 0.00943312 -0.999911 -0.999911 0.00943312 -0.00943312 
0 0.00943354 -0.999955 0 0.00943354 -0.999955 0 0.00943354 -0.999955 
0 0.00943354 -0.999955 0 0.00943354 -0.999955 0.00943312 0.00943312 -0.999911 
0.707091 0.707091 -0.00667067 0.710434 0.703732 -0.00670221 -0.00943312 0.999911 -0.00943312 
0 0.999955 -0.00943354 0 0.999955 -0.00943354 0 0.999955 -0.00943354 
0 0.999955 -0.00943354 0 0.707107 -0.707107 0.00943312 0.999911 -0.00943312 
-0.00943312 -0.00943312 -0.999911 -0.00667067 -0.707091 -0.707091 -0.707091 -0.00667067 -0.707091 
0 -0.707107 -0.707107 0 -0.707107 -0.707107 0 -0.707107 -0.707107 
0 -0.707107 -0.707107 0 -0.707107 -0.707107 0 -0.707107 -0.707107 
0 -0.707107 -0.707107 0 -0.707107 -0.707107 0.00670221 -0.710434 -0.703732 
0.00943354 -0.999955 0 0.707107 -0.707107 0 -0.707107 0 -0.707107 
-0.707107 0 -0.707107 0.707107 -0.707107 0 0.999955 -0.00943354 0 
-0.707107 0 -0.707107 -0.707107 0 -0.707107 1 0 0 
-0.707107 0 -0.707107 -0.707107 0 -0.707107 1 0 0 
-0.707107 0 -0.707107 -0.707107 0 -0.707107 1 0 0 
-0.707107 0 -0.707107 -0.707107 0 -0.707107 0.71045 0 -0.703748 
-0.707107 0 -0.707107 -0.707107 0 -0.707107 0.71045 0 -0.703748 
-0.707107 0 -0.707107 -0.707107 0 -0.707107 0.580999 -0.575517 -0.575517 
-0.707107 0 -0.707107 -0.707107 0 -0.707107 0.57735 -0.57735 -0.57735 
0.57735 -0.57735 -0.57735 0.57735 -0.57735 -0.57735 -0.707091 0.00667067 -0.707091 
-0.707091 0.00667067 -0.707091 0.580999 -0.575517 -0.575517 1 0 0 
-0.57735 0.57735 -0.57735 -0.579166 0.579166 -0.573702 0.579166 0.579166 -0.573702 
0.580999 0.575517 -0.575517 -0.00670221 0.710434 -0.703732 0 0.71045 -0.703748 
0 0.71045 -0.703748 0 0.71045 -0.703748 -0.575517 0.580999 -0.575517 
0 0.703748 -0.71045 -0.575517 0.575517 -0.580999 0.703748 0 -0.71045 
0.710434 0.00670221 -0.703732 -0.00943312 0.00943312 -0.999911 -0.707091 0.00667067 -0.707091 
0.707107 0 -0.707107 0.00943354 0 -0.999955 0.579166 -0.573702 -0.579166 
-0.00667067 0.707091 -0.707091 -0.571834 0.577333 -0.582831 0.575517 -0.575517 -0.580999 
-0.575517 0.575517 -0.580999 0 0 -1 0.703748 0 -0.71045 
0 0.703748 -0.71045 -0.00943312 -0.00943312 -0.999911 -0.00943312 -0.999911 -0.00943312 
-0.57735 -0.57735 -0.57735 0 -0.00943354 -0.999955 0 -0.707107 -0.707107 
0 -0.00943354 -0.999955 0 -0.707107 -0.707107 0.00943312 -0.00943312 -0.999911 
0.00943312 -0.999911 -0.00943312 0.999911 -0.00943312 -0.00943312 -0.00943312 -0.00943312 -0.999911 
-0.57735 -0.57735 -0.57735 -0.57735 -0.57735 -0.57735 0 0 -1 
0 0 -1 0 0 -1 0.00943354 0 -0.999955 
0.710434 -0.703732 -0.00670221 -0.00943312 -0.00943312 -0.999911 -0.57735 -0.57735 -0.57735 
-0.707091 -0.00667067 -0.707091 0 0 -1 0 0 -1 
0 -0.703748 -0.71045 0 -0.703748 -0.71045 0 -0.703748 -0.71045 
0.703732 -0.710434 -0.00670221 0 -0.707107 -0.707107 0.00667067 -0.707091 -0.707091 
0.00943312 -0.999911 -0.00943312 0.999911 -0.00943312 -0.00943312 -0.00943354 0 -0.999955 
-0.707107 0 -0.707107 0 0 -1 -0.703748 0 -0.71045 
0.580999 -0.575517 0.575517 0.579166 -0.579166 0.573702 -0.00943354 0 -0.999955 
-0.707107 0 -0.707107 0 0 -1 -0.703748 0 -0.71045 
0.575517 -0.580999 0.575517 0.00943354 -0.999955 0 0.999955 -0.00943354 0 
-0.00943354 0 -0.999955 -0.707107 0 -0.707107 0 0 -1 
-0.703748 0 -0.71045 1 0 0 -0.00943354 0 -0.999955 
-0.707107 0 -0.707107 0 0 -1 -0.703748 0 -0.71045 
1 0 0 -0.00943354 0 -0.999955 -0.707107 0 -0.707107 
0 0 -1 -0.703748 0 -0.71045 0.580999 -0.575517 -0.575517 
-0.00943354 0 -0.999955 -0.707107 0 -0.707107 0 0 -1 
-0.703748 0 -0.71045 0.573702 -0.579166 -0.579166 0.703732 -0.00670221 -0.710434 
0.00943312 -0.00943312 -0.999911 0.00943312 -0.999911 -0.00943312 0.999911 -0.00943312 -0.00943312 
-0.00943312 0.00943312 -0.999911 -0.999911 0.00943312 -0.00943312 0 0.00943354 -0.999955 
-0.703748 0 -0.71045 0.703748 0 -0.71045 0.00943354 0 -0.999955 
0.999955 0 -0.00943354 -0.00943312 0.999911 -0.00943312 -0.573702 0.579166 -0.579166 
-0.579166 0.573702 -0.579166 -0.707107 0 -0.707107 0.575517 -0.575517 -0.580999 
0.00943354 0 -0.999955 0.999955 0 -0.00943354 -0.707107 0 -0.707107 
-0.707107 0 -0.707107 0.579166 -0.573702 -0.579166 0.999955 0 -0.00943354 
-0.707107 0 -0.707107 -0.999955 0 -0.00943354 1 0 0 
-0.00943312 0.00943312 -0.999911 -0.999911 0.00943312 -0.00943312 -0.573702 0.579166 -0.579166 
0.579166 0.573702 -0.579166 0.999955 0 -0.00943354 -0.00943312 0.999911 -0.00943312 
-0.703732 0.710434 -0.00670221 -0.00670221 0.703732 -0.710434 -0.710434 0.703732 -0.00670221 
0 0.703748 -0.71045 0 0.703748 -0.71045 0 0.703748 -0.71045 
-0.575517 0.575517 -0.580999 0.703748 0 -0.71045 0.00943354 0 -0.999955 
0.999955 0 -0.00943354 -0.00943312 0.00943312 -0.999911 -0.999911 0.00943312 -0.00943312 
0 0.00943354 -0.999955 0 0 -1 0 0 -1 
-0.703748 0 -0.71045 0.579166 -0.573702 -0.579166 0.579166 -0.573702 -0.579166 
-0.00943312 0.999911 -0.00943312 -0.703732 0.710434 -0.00670221 -0.710434 0.703732 -0.00670221 
-0.00943354 0 -0.999955 0 0 -1 0 0 -1 
0 0.703748 -0.71045 -0.575517 0.575517 -0.580999 0.703732 -0.00670221 -0.710434 
0.573702 -0.579166 -0.579166 0.00943354 0 -0.999955 0.00952295 -0.999909 -0.00952295 
0.999955 0 -0.00943354 -0.00943312 0.00943312 -0.999911 -0.999911 0.00943312 -0.00943312 
0 0.00943354 -0.999955 0 0.00943354 -0.999955 0 0.00943354 -0.999955 
0 0 -1 0 0.703748 -0.71045 0.00943312 0.00943312 -0.999911 
0.707091 0.707091 -0.00667067 0.710434 0.703732 -0.00670221 -0.00943312 0.999911 -0.00943312 
0 0.999955 -0.00943354 0 0.999955 -0.00943354 -0.573702 0.579166 -0.579166 
-0.579166 0.573702 -0.579166 -0.00943354 0 -0.999955 0.00943312 0.00943312 -0.999911 
0.707091 0.707091 -0.00667067 0.707091 0.707091 -0.00667067 0 0.00943354 -0.999955 
-0.999909 0.00952295 -0.00952295 0.703732 0.710434 -0.00670221 0.707091 0.707091 -0.00667067 
0 0.999955 -0.00943354 -0.00667067 -0.707091 -0.707091 -0.00943312 -0.999911 -0.00943312 
-0.707091 -0.707091 -0.00667067 0.00667067 -0.707091 -0.707091 0.00667067 -0.707091 -0.707091 
0.57735 -0.57735 -0.57735 -0.57735 -0.57735 -0.57735 -0.00943312 -0.999911 -0.00943312 
-0.57735 -0.57735 -0.57735 -0.703748 -0.71045 0 0.579166 -0.579166 -0.573702 
0.999955 -0.00943354 0 -0.57735 -0.57735 -0.57735 -0.57735 -0.57735 -0.57735 
-0.57735 -0.57735 -0.57735 0.71045 -0.703748 0 -0.707091 -0.00667067 -0.707091 
-0.57735 -0.57735 -0.57735 -0.707091 -0.00667067 -0.707091 0.703748 -0.71045 0 
0.00943354 -0.999955 0 0.999955 -0.00943354 0 -0.707107 0 -0.707107 
-0.707107 0 -0.707107 0.71045 -0.703748 0 -0.707107 0 -0.707107 
-0.707107 0 -0.707107 0.703748 -0.71045 0 0.00943354 -0.999955 0 
0.999955 -0.00943354 0 -0.707107 0 -0.707107 -0.707107 0 -0.707107 
1 0 0 -0.707107 0 -0.707107 -0.707107 0 -0.707107 
0.580999 -0.575517 -0.575517 -0.707107 0 -0.707107 -0.707107 0 -0.707107 
0.57735 -0.57735 -0.57735 0.57735 -0.57735 -0.57735 0.57735 -0.57735 -0.57735 
-0.707091 0.00667067 -0.707091 -0.707091 0.00667067 -0.707091 0.579166 -0.579166 -0.573702 
0.999955 -0.00943354 0 -0.57735 0.57735 -0.57735 -0.579166 0.579166 -0.573702 
1 0 0 -0.579166 0.579166 -0.573702 -0.579166 0.573702 -0.579166 
-0.579166 0.573702 -0.579166 0.71045 0 -0.703748 -0.707091 0.00667067 -0.707091 
-0.707091 0.00667067 -0.707091 0.71045 0 -0.703748 -0.707091 0.707091 -0.00667067 
-0.71045 0.703748 0 0.71045 0 -0.703748 -0.999955 0.00943354 0 
0.71045 0 -0.703748 -0.00943354 0.999955 0 -0.703748 0.71045 0 
-0.71045 0.703748 0 0.580999 -0.575517 -0.575517 -0.999955 0.00943354 0 
0.57735 -0.57735 -0.57735 0.57735 -0.57735 -0.57735 0.57735 -0.57735 -0.57735 
-0.00943354 0.999955 0 -0.703748 0.71045 0 -0.71045 0.703748 0 
0.580999 -0.575517 -0.575517 1 0 0 -0.999955 0.00943354 0 
0.579166 0.579166 -0.573702 0.580999 0.575517 -0.575517 -0.00943354 0.999955 0 
0 1 0 -0.575517 0.580999 -0.575517 -0.57735 0.57735 -0.57735 
-0.57735 0.57735 -0.57735 0.579166 0.579166 -0.573702 0.579166 0.579166 -0.573702 
-0.57735 0.57735 -0.57735 -0.575517 0.580999 -0.575517 0.575517 0.580999 -0.575517 
0.579166 0.579166 -0.573702 0 1 0 -0.00667067 -0.707091 -0.707091 
-0.00943312 -0.999911 -0.00943312 -0.57735 -0.57735 -0.57735 0.00943312 -0.00943312 -0.999911 
0.00943312 -0.999911 -0.00943312 0.999911 -0.00943312 -0.00943312 -0.579166 -0.579166 -0.573702 
-0.579166 -0.579166 -0.573702 0.579166 -0.573702 -0.579166 0.999955 0 -0.00943354 
-0.57735 -0.57735 -0.57735 -0.00667067 -0.707091 -0.707091 -0.57735 -0.57735 -0.57735 
0 -0.71045 -0.703748 -0.575517 -0.580999 -0.575517 1 0 0 
-0.57735 -0.57735 -0.57735 -0.57735 -0.57735 -0.57735 -0.57735 -0.57735 -0.57735 
0.580999 -0.575517 -0.575517 -0.707091 -0.00667067 -0.707091 -0.57735 -0.57735 -0.57735 
-0.999911 -0.00943312 -0.00943312 0.575517 -0.580999 -0.575517 0.00670221 -0.710434 -0.703732 
0.999955 -0.00943354 0 -0.707107 0 -0.707107 -0.999955 0 -0.00943354 
0.580999 -0.575517 -0.575517 -0.707107 0 -0.707107 -0.999955 0 -0.00943354 
0.575517 -0.580999 -0.575517 0.00943354 -0.999955 0 0.999955 -0.00943354 0 
-0.707107 0 -0.707107 -0.999955 0 -0.00943354 0.580999 -0.575517 -0.575517 
-0.707107 0 -0.707107 -0.999955 0 -0.00943354 0.573702 -0.579166 -0.579166 
0.573702 -0.579166 -0.579166 0.00943312 -0.00943312 -0.999911 0.00943312 -0.999911 -0.00943312 
0.999911 -0.00943312 -0.00943312 -0.707107 0 -0.707107 -0.999955 0 -0.00943354 
0.579166 -0.573702 -0.579166 0.999955 0 -0.00943354 -0.707107 0 -0.707107 
-0.999955 0 -0.00943354 1 0 0 -0.00943312 0.00943312 -0.999911 
-0.999911 0.00943312 -0.00943312 -0.573702 0.579166 -0.579166 0.580999 -0.575517 -0.575517 
-0.00943312 0.999911 -0.00943312 -0.703732 0.710434 -0.00670221 -0.579166 0.573702 -0.579166 
-0.710434 0.703732 -0.00670221 0.573702 -0.579166 -0.579166 0.703732 -0.00670221 -0.710434 
0.00943312 -0.00943312 -0.999911 0.00943312 -0.999911 -0.00943312 0.999911 -0.00943312 -0.00943312 
-0.707091 0.00667067 -0.707091 -0.999911 0.00943312 -0.00943312 0.703748 0 -0.71045 
0.00943354 0 -0.999955 0.999955 0 -0.00943354 -0.00943312 0.999911 -0.00943312 
-0.703748 0.71045 0 -0.71045 0.703748 0 0.703748 0 -0.71045 
0.00943354 0 -0.999955 0.999955 0 -0.00943354 -0.999955 0.00943354 0 
0.703748 0 -0.71045 0.00943354 0 -0.999955 0.999955 0 -0.00943354 
-0.00943354 0.999955 0 -0.703748 0.71045 0 -0.71045 0.703748 0 
0.575517 -0.575517 -0.580999 0.00943354 0 -0.999955 0.999955 0 -0.00943354 
-0.999955 0.00943354 0 0.579166 -0.573702 -0.579166 0.999955 0 -0.00943354 
-0.00943354 0.999955 0 -0.703748 0.71045 0 -0.71045 0.703748 0 
1 0 0 -0.999955 0.00943354 0 0.579166 0.573702 -0.579166 
0.999955 0 -0.00943354 -0.00943354 0.999955 0 -0.703748 0.71045 0 
-0.579166 0.573702 -0.579166 -0.710434 0.703732 -0.00670221 0.575517 0.575517 -0.580999 
0.00943312 0.00943312 -0.999911 0.999911 0.00943312 -0.00943312 -0.00943312 0.00943312 -0.999911 
-0.999911 0.00943312 -0.00943312 -0.573702 0.579166 -0.579166 0.573702 0.579166 -0.579166 
0.00943312 0.00943312 -0.999911 0.57735 0.57735 -0.57735 0.57735 0.57735 -0.57735 
-0.00943312 0.999911 -0.00943312 0 0.999955 -0.00943354 0 1 0 
0 0.999955 -0.00943354 0.00943312 0.999911 -0.00943312 -0.57735 -0.57735 -0.57735 
-0.00943312 -0.999911 -0.00943312 -0.57735 -0.57735 -0.57735 0 -1 0 
0.00943354 -0.999955 0 0.999955 -0.00943354 0 -0.00667067 -0.707091 -0.707091 
-0.00667067 -0.707091 -0.707091 -0.57735 -0.57735 -0.57735 0 -0.707107 -0.707107 
0 -0.707107 -0.707107 -0.573702 -0.579166 -0.579166 -0.573702 -0.579166 -0.579166 
1 0 0 -0.57735 -0.57735 -0.57735 -0.57735 -0.57735 -0.57735 
-0.57735 -0.57735 -0.57735 0.580999 -0.575517 -0.575517 -0.57735 -0.57735 -0.57735 
-0.57735 -0.57735 -0.57735 -0.999911 -0.00943312 -0.00943312 0.573702 -0.579166 -0.579166 
0.573702 -0.579166 -0.579166 0.00667067 -0.707091 -0.707091 0.00667067 -0.707091 -0.707091 
0.707091 -0.00667067 -0.707091 -1 0 0 0.580999 -0.575517 -0.575517 
-1 0 0 0.57735 -0.57735 -0.57735 0.57735 -0.57735 -0.57735 
0.57735 -0.57735 -0.57735 -1 0 0 0.579166 -0.579166 -0.573702 
0.579166 -0.579166 -0.573702 -1 0 0 0.57735 -0.57735 -0.57735 
0.57735 -0.57735 -0.57735 0.57735 -0.57735 -0.57735 -1 0 0 
0.579166 -0.579166 -0.573702 0.710434 -0.00670221 -0.703732 -1 0 0 
0.71045 0 -0.703748 -1 0 0 0.580999 -0.575517 -0.575517 
-0.999955 0.00943354 0 0.57735 -0.57735 -0.57735 0.57735 -0.57735 -0.57735 