# vtk DataFile Version 3.0
vtk output
ASCII
DATASET POLYDATA
POINTS 6936 float
56 50 18.0108 56 49.0108 19 55.0108 50 19 
56.9892 50 19 53 51 18.0108 53 50.0108 19 
52.0108 51 19 54 51 18.0108 54 50.0108 19 
54.9892 51 19 56 50.9892 19 52 52 18.0108 
52 51.0108 19 51.0108 52 19 53 51.9892 19 
52.9892 52 19 54 51.9892 19 51 53 18.0108 
51 52.0108 19 50.0108 53 19 52 52.9892 19 
51.9892 53 19 50 54 18.0108 50 53.0108 19 
49.0108 54 19 51 53.9892 19 50.9892 54 19 
48 55 18.0108 48 54.0108 19 47.0108 55 19 
49 55 18.0108 49 54.0108 19 50 54.9892 19 
49.9892 55 19 48 56 18.0108 47.0108 56 19 
48.9892 56 19 49 55.9892 19 46 57 18.0108 
46 56.0108 19 45.0108 57 19 47 57 18.0108 
47 56.0108 19 48 56.9892 19 47.9892 57 19 
46 58 18.0108 45.0108 58 19 46.9892 58 19 
47 57.9892 19 44 59 18.0108 44 58.0108 19 
43.0108 59 19 45 59 18.0108 45 58.0108 19 
46 59 18.0108 46.9892 59 19 44 60 18.0108 
43.0108 60 19 44.9892 60 19 45 59.9892 19 
46 59.9892 19 43 61 18.0108 43 60.0108 19 
42.0108 61 19 44 61 18.0108 44.9892 61 19 
42 62 18.0108 42 61.0108 19 41.0108 62 19 
43 61.9892 19 42.9892 62 19 44 61.9892 19 
42 63 18.0108 41.0108 63 19 42.9892 63 19 
42 64 18.0108 41.0108 64 19 42.9892 64 19 
40 65 18.0108 40 64.0107 19 39.0108 65 19 
41 65 18.0108 41 64.0107 19 42 64.9893 19 
41.9892 65 19 40 66 18.0108 39.0108 66 19 
40.9892 66 19 41 65.9893 19 40 67 18.0108 
39.0108 67 19 40.9892 67 19 40 68 18.0108 
39.0108 68 19 40.9892 68 19 39 69 18.0108 
39 68.0107 19 38.0108 69 19 40 68.9893 19 
39.9892 69 19 39 69.9893 19 53 50 19.0108 
53 49.0108 20 52.0108 50 20 54 50 19.0108 
54 49.0108 20 55 50 19.0108 55 49.0108 20 
56 49.0108 20 57 50 19.0108 57 49.0108 20 
58 50 19.0108 58 49.0108 20 58.9892 50 20 
52 51 19.0108 52 50.0108 20 51.0108 51 20 
55 51 19.0108 56 51 19.0108 57 51 19.0108 
57.9892 51 20 58 50.9892 20 51 52 19.0108 
51 51.0108 20 50.0108 52 20 53 52 19.0108 
54 52 19.0108 54.9892 52 20 55 51.9892 20 
56 51.9892 20 57 51.9892 20 50 53 19.0108 
50 52.0108 20 49.0108 53 20 52 53 19.0108 
53 53 19.0108 53.9892 53 20 54 52.9892 20 
47 54 19.0108 47 53.0108 20 46.0108 54 20 
48 54 19.0108 48 53.0108 20 49 54 19.0108 
49 53.0108 20 51 54 19.0108 52 54 19.0108 
52.9892 54 20 53 53.9892 20 46 55 19.0108 
46 54.0108 20 45.0108 55 20 47 55 19.0108 
50 55 19.0108 51 55 19.0108 51.9892 55 20 
52 54.9892 20 45 56 19.0108 45 55.0108 20 
44.0108 56 20 46 56 19.0108 47 56 19.0108 
49 56 19.0108 50 56 19.0108 50.9892 56 20 
51 55.9892 20 44 57 19.0108 44 56.0108 20 
43.0108 57 20 45 57 19.0108 48 57 19.0108 
49 57 19.0108 49.9892 57 20 50 56.9892 20 
43 58 19.0108 43 57.0108 20 42.0108 58 20 
44 58 19.0108 45 58 19.0108 47 58 19.0108 
48 58 19.0108 48.9892 58 20 49 57.9892 20 
43 59 19.0108 42.0108 59 20 47 59 19.0108 
48 59 19.0108 48.9892 59 20 43 60 19.0108 
42.0108 60 20 45 60 19.0108 46 60 19.0108 
47 60 19.0108 48 60 19.0108 48.9892 60 20 
42 61 19.0108 42 60.0108 20 41.0108 61 20 
45 61 19.0108 46 61 19.0108 47 61 19.0108 
47.9892 61 20 48 60.9892 20 41 62 19.0108 
41 61.0108 20 40.0108 62 20 43 62 19.0108 
44 62 19.0108 45 62 19.0108 46 62 19.0108 
46.9892 62 20 47 61.9892 20 40 63 19.0108 
40 62.0108 20 39.0108 63 20 41 63 19.0108 
43 63 19.0108 44 63 19.0108 45 63 19.0108 
45.9892 63 20 46 62.9892 20 39 64 19.0108 
39 63.0108 20 38.0108 64 20 40 64 19.0108 
41 64 19.0108 43 64 19.0108 44 64 19.0108 
44.9892 64 20 45 63.9892 20 39 65 19.0108 
38.0108 65 20 42 65 19.0108 43 65 19.0108 
43.9892 65 20 44 64.9893 20 39 66 19.0108 
38.0108 66 20 41 66 19.0108 42 66 19.0108 
42.9892 66 20 43 65.9893 20 39 67 19.0108 
38.0108 67 20 41 67 19.0108 42 67 19.0108 
42.9892 67 20 39 68 19.0108 38.0108 68 20 
41 68 19.0108 42 68 19.0108 42.9892 68 20 
38.0108 69 20 40 69 19.0108 41 69 19.0108 
41.9892 69 20 42 68.9893 20 39 70 19.0108 
38.0108 70 20 40 70 19.0108 40.9892 70 20 
41 69.9893 20 39 71 19.0108 38.0108 71 20 
40 71 19.0108 40.9892 71 20 39 72 19.0108 
38.0108 72 20 40 72 19.0108 40.9892 72 20 
39 73 19.0108 38.0108 73 20 39.9892 73 20 
40 72.9893 20 39 73.9893 20 53 49 20.0108 
53 48.0108 21 52.0108 49 21 54 49 20.0108 
54 48.0108 21 55 49 20.0108 55 48.0108 21 
56 49 20.0108 56 48.0108 21 57 49 20.0108 
57 48.0108 21 58 49 20.0108 58 48.0108 21 
59 49 20.0108 59 48.0108 21 60 49 20.0108 
60 48.0108 21 60.9892 49 21 52 50 20.0108 
52 49.0108 21 51.0108 50 21 59 49.9892 21 
58.9892 50 21 60 49.9892 21 51 51 20.0108 
51 50.0108 21 50.0108 51 21 57.9892 51 21 
58 50.9892 21 50 52 20.0108 50 51.0108 21 
49.0108 52 21 54.9892 52 21 55 51.9892 21 
56 51.9892 21 57 51.9892 21 47 53 20.0108 
47 52.0108 21 46.0108 53 21 48 53 20.0108 
48 52.0108 21 49 53 20.0108 49 52.0108 21 
54 53 20.0108 54.9892 53 21 46 54 20.0108 
46 53.0108 21 45.0108 54 21 52.9892 54 21 
53 53.9892 21 54 53.9892 21 45 55 20.0108 
45 54.0108 21 44.0108 55 21 52 55 20.0108 
52.9892 55 21 44 56 20.0108 44 55.0108 21 
43.0108 56 21 50.9892 56 21 51 55.9892 21 
52 55.9892 21 43 57 20.0108 43 56.0108 21 
42.0108 57 21 50 57 20.0108 50.9892 57 21 
42 58 20.0108 42 57.0108 21 41.0108 58 21 
48.9892 58 21 49 57.9892 21 50 57.9892 21 
42 59 20.0108 41.0108 59 21 48.9892 59 21 
42 60 20.0108 41.0108 60 21 48.9892 60 21 
41 61 20.0108 41 60.0108 21 40.0108 61 21 
47.9892 61 21 48 60.9892 21 40 62 20.0108 
40 61.0108 21 39.0108 62 21 46.9892 62 21 
47 61.9892 21 39 63 20.0108 39 62.0108 21 
38.0108 63 21 46 63 20.0108 46.9892 63 21 
38.0108 64 21 44.9892 64 21 45 63.9892 21 
46 63.9892 21 38 65 20.0108 38 64.0107 21 
37.0108 65 21 44 65 20.0108 44.9892 65 21 
38 66 20.0108 37.0108 66 21 42.9892 66 21 
43 65.9893 21 44 65.9893 21 38 67 20.0108 
37.0108 67 21 42.9892 67 21 38 68 20.0108 
37.0108 68 21 42.9892 68 21 38 69 20.0108 
37.0108 69 21 42 69 20.0108 42.9892 69 21 
38 70 20.0108 37.0108 70 21 40.9892 70 21 
41 69.9893 21 42 69.9893 21 38 71 20.0108 
37.0108 71 21 40.9892 71 21 38 72 20.0108 
37.0108 72 21 40.9892 72 21 38 73 20.0108 
37.0108 73 21 40 73 20.0108 40.9892 73 21 
38 74 20.0108 37.0108 74 21 39 73.9893 21 
38.9892 74 21 40 73.9893 21 38 75 20.0108 
37.0108 75 21 38.9892 75 21 38 76 20.0108 
37.0108 76 21 38.9892 76 21 38 77 20.0108 
37.0108 77 21 39 76.0107 21 39 77 20.0108 
39.9892 77 21 38 77.9893 21 39 77.9893 21 
53 48 21.0108 53 47.0108 22 52.0108 48 22 
54 48 21.0108 54 47.0108 22 55 48 21.0108 
55 47.0108 22 56 48 21.0108 56 47.0108 22 
57 48 21.0108 57 47.0108 22 58 48 21.0108 
58 47.0108 22 59 48 21.0108 59 47.0108 22 
60 48 21.0108 60 47.0108 22 61 48 21.0108 
61 47.0108 22 62 48 21.0108 62 47.0108 22 
63 48 21.0108 63 47.0108 22 64 48 21.0108 
64 47.0108 22 64.9893 48 22 52 49 21.0108 
52 48.0108 22 51.0108 49 22 61 49 21.0108 
62 49 21.0108 63 49 21.0108 63.9892 49 22 
64 48.9892 22 51 50 21.0108 51 49.0108 22 
50.0108 50 22 59 50 21.0108 60 50 21.0108 
60.9892 50 22 61 49.9892 22 62 49.9892 22 
63 49.9892 22 50 51 21.0108 50 50.0108 22 
49.0108 51 22 58 51 21.0108 59 51 21.0108 
59.9892 51 22 60 50.9892 22 47 52 21.0108 
47 51.0108 22 46.0108 52 22 48 52 21.0108 
48 51.0108 22 49 52 21.0108 49 51.0108 22 
55 52 21.0108 56 52 21.0108 56.9892 52 22 
57 51.9892 22 58 51.9892 22 59 51.9892 22 
46 53 21.0108 46 52.0108 22 45.0108 53 22 
55 53 21.0108 55.9892 53 22 56 52.9892 22 
45 54 21.0108 45 53.0108 22 44.0108 54 22 
53 54 21.0108 54 54 21.0108 54.9892 54 22 
55 53.9892 22 44 55 21.0108 44 54.0108 22 
43.0108 55 22 53 55 21.0108 53.9892 55 22 
54 54.9892 22 43 56 21.0108 43 55.0108 22 
42.0108 56 22 51 56 21.0108 52 56 21.0108 
52.9892 56 22 53 55.9892 22 42 57 21.0108 
42 56.0108 22 41.0108 57 22 51 57 21.0108 
51.9892 57 22 52 56.9892 22 41 58 21.0108 
41 57.0108 22 40.0108 58 22 49 58 21.0108 
50 58 21.0108 50.9892 58 22 51 57.9892 22 
41 59 21.0108 40.0108 59 22 49 59 21.0108 
49.9892 59 22 50 58.9892 22 41 60 21.0108 
40.0108 60 22 48.9892 60 22 49 59.9892 22 
40 61 21.0108 40 60.0108 22 39.0108 61 22 
48 61 21.0108 48.9892 61 22 39 62 21.0108 
39 61.0108 22 38.0108 62 22 47 62 21.0108 
48 62 21.0108 48.9892 62 22 38.0108 63 22 
47 63 21.0108 47.9892 63 22 48 62.9892 22 
38.0108 64 22 45 64 21.0108 46 64 21.0108 
46.9892 64 22 47 63.9892 22 38 64.0107 22 
37.0108 65 22 45 65 21.0108 45.9892 65 22 
46 64.9893 22 37 66 21.0108 37 65.0107 22 
36.0108 66 22 43 66 21.0108 44 66 21.0108 
44.9892 66 22 45 65.9893 22 37 67 21.0108 
36.0108 67 22 43 67 21.0108 44 67 21.0108 
44.9892 67 22 37 68 21.0108 36.0108 68 22 
43 68 21.0108 44 68 21.0108 44.9892 68 22 
37 69 21.0108 36.0108 69 22 43 69 21.0108 
43.9892 69 22 44 68.9893 22 37 70 21.0108 
36.0108 70 22 41 70 21.0108 42 70 21.0108 
42.9892 70 22 43 69.9893 22 37 71 21.0108 
36.0108 71 22 41 71 21.0108 42 71 21.0108 
42.9892 71 22 37 72 21.0108 36.0108 72 22 
41 72 21.0108 42 72 21.0108 42.9892 72 22 
37 73 21.0108 36.0108 73 22 41 73 21.0108 
41.9892 73 22 42 72.9893 22 37 74 21.0108 
36.0108 74 22 39 74 21.0108 40 74 21.0108 
40.9892 74 22 41 73.9893 22 37 75 21.0108 
36.0108 75 22 39 75 21.0108 40 75 21.0108 
40.9892 75 22 37 76 21.0108 36.0108 76 22 
39 76 21.0108 40 76 21.0108 40.9892 76 22 
37 77 21.0108 36.0108 77 22 40 77 21.0108 
40.9892 77 22 37 78 21.0108 36.0108 78 22 
38 78 21.0108 39 78 21.0108 40 78 21.0108 
40.9892 78 22 37 79 21.0108 36.0108 79 22 
38 79 21.0108 39 79 21.0108 40 79 21.0108 
40.9892 79 22 37 79.9893 22 38 79.9893 22 
38.0108 80 22 39 80 21.0108 40 80 21.0108 
40.9892 80 22 39 81 21.0108 38.0108 81 22 
39.9892 81 22 40 80.9893 22 39 81.9893 22 
54 47 22.0108 54 46.0108 23 53.0108 47 23 
55 47 22.0108 55 46.0108 23 56 47 22.0108 
56 46.0108 23 57 47 22.0108 57 46.0108 23 
58 47 22.0108 58 46.0108 23 59 47 22.0108 
59 46.0108 23 60 47 22.0108 60 46.0108 23 
61 47 22.0108 61 46.0108 23 62 47 22.0108 
62 46.0108 23 63 47 22.0108 63 46.0108 23 
64 47 22.0108 64 46.0108 23 65 47 22.0108 
65 46.0108 23 66 47 22.0108 66 46.0108 23 
67 47 22.0108 67 46.0108 23 68 47 22.0108 
68 46.0108 23 69 47 22.0108 69 46.0108 23 
69.9893 47 23 52 48 22.0108 52 47.0108 23 
51.0108 48 23 53 47.0108 23 65 47.9892 23 
64.9893 48 23 66 47.9892 23 67 47.9892 23 
[...]
POINT_DATA 6936
SCALARS scalars float
LOOKUP_TABLE default
1 1 1 1 1 1 1 1 1 
1 1 1 1 1 1 1 1 1 
1 1 1 1 1 1 1 1 1 
1 1 1 1 1 1 1 1 1 
1 1 1 1 1 1 1 1 1 
1 1 1 1 1 1 1 1 1 
1 1 1 1 1 1 1 1 1 
1 1 1 1 1 1 1 1 1 
1 1 1 1 1 1 1 1 1 
1 1 1 1 1 1 1 1 1 
1 1 1 1 1 1 1 1 1 
1 1 1 1 1 1 1 1 1 
1 1 1 1 1 1 1 1 1 
1 1 1 1 1 1 1 1 1 
1 1 1 1 1 1 1 1 1 
1 1 1 1 1 1 1 1 1 
1 1 1 1 1 1 1 1 1 
1 1 1 1 1 1 1 1 1 
1 1 1 1 1 1 1 1 1 
1 1 1 1 1 1 1 1 1 
1 1 1 1 1 1 1 1 1 
1 1 1 1 1 1 1 1 1 
1 1 1 1 1 1 1 1 1 
1 1 1 1 1 1 1 1 1 
1 1 1 1 1 1 1 1 1 
1 1 1 1 1 1 1 1 1 
1 1 1 1 1 1 1 1 1 
1 1 1 1 1 1 1 1 1 
1 1 1 1 1 1 1 1 1 
1 1 1 1 1 1 1 1 1 
1 1 1 1 1 1 1 1 1 
1 1 1 1 1 1 1 1 1 
1 1 1 1 1 1 1 1 1 
1 1 1 1 1 1 1 1 1 
1 1 1 1 1 1 1 1 1 
1 1 1 1 1 1 1 1 1 
1 1 1 1 1 1 1 1 1 
1 1 1 1 1 1 1 1 1 
1 1 1 1 1 1 1 1 1 
1 1 1 1 1 1 1 1 1 
1 1 1 1 1 1 1 1 1 
1 1 1 1 1 1 1 1 1 
1 1 1 1 1 1 1 1 1 
1 1 1 1 1 1 1 1 1 
1 1 1 1 1 1 1 1 1 
1 1 1 1 1 1 1 1 1 
1 1 1 1 1 1 1 1 1 
1 1 1 1 1 1 1 1 1 
1 1 1 1 1 1 1 1 1 
1 1 1 1 1 1 1 1 1 
1 1 1 1 1 1 1 1 1 
1 1 1 1 1 1 1 1 1 
1 1 1 1 1 1 1 1 1 
1 1 1 1 1 1 1 1 1 
1 1 1 1 1 1 1 1 1 
1 1 1 1 1 1 1 1 1 
1 1 1 1 1 1 1 1 1 
1 1 1 1 1 1 1 1 1 
1 1 1 1 1 1 1 1 1 
1 1 1 1 1 1 1 1 1 
1 1 1 1 1 1 1 1 1 
1 1 1 1 1 1 1 1 1 
1 1 1 1 1 1 1 1 1 
1 1 1 1 1 1 1 1 1 
1 1 1 1 1 1 1 1 1 
1 1 1 1 1 1 1 1 1 
1 1 1 1 1 1 1 1 1 
1 1 1 1 1 1 1 1 1 
1 1 1 1 1 1 1 1 1 
1 1 1 1 1 1 1 1 1 
1 1 1 1 1 1 1 1 1 
1 1 1 1 1 1 1 1 1 
1 1 1 1 1 1 1 1 1 
1 1 1 1 1 1 1 1 1 
1 1 1 1 1 1 1 1 1 
1 1 1 1 1 1 1 1 1 
1 1 1 1 1 1 1 1 1 
1 1 1 1 1 1 1 1 1 
1 1 1 1 1 1 1 1 1 
1 1 1 1 1 1 1 1 1 
1 1 1 1 1 1 1 1 1 
1 1 1 1 1 1 1 1 1 
1 1 1 1 1 1 1 1 1 
1 1 1 1 1 1 1 1 1 
1 1 1 1 1 1 1 1 1 
1 1 1 1 1 1 1 1 1 
1 1 1 1 1 1 1 1 1 
1 1 1 1 1 1 1 1 1 
1 1 1 1 1 1 1 1 1 
1 1 1 1 1 1 1 1 1 
1 1 1 1 1 1 1 1 1 
1 1 1 1 1 1 1 1 1 
1 1 1 1 1 1 1 1 1 
1 1 1 1 1 1 1 1 1 
1 1 1 1 1 1 1 1 1 
1 1 1 1 1 1 1 1 1 
1 1 1 1 1 1 1 1 1 
1 1 1 1 1 1 1 1 1 
1 1 1 1 1 1 1 1 1 
1 1 1 1 1 1 1 1 1 
1 1 1 1 1 1 1 1 1 
1 1 1 1 1 1 1 1 1 
1 1 1 1 1 1 1 1 1 
1 1 1 1 1 1 1 1 1 
1 1 1 1 1 1 1 1 1 
1 1 1 1 1 1 1 1 1 
1 1 1 1 1 1 1 1 1 
1 1 1 1 1 1 1 1 1 
1 1 1 1 1 1 1 1 1 
1 1 1 1 1 1 1 1 1 
1 1 1 1 1 1 1 1 1 
1 1 1 1 1 1 1 1 1 
1 1 1 1 1 1 1 1 1 
1 1 1 1 1 1 1 1 1 
1 1 1 1 1 1 1 1 1 
1 1 1 1 1 1 1 1 1 
1 1 1 1 1 1 1 1 1 
1 1 1 1 1 1 1 1 1 
1 1 1 1 1 1 1 1 1 
1 1 1 1 1 1 1 1 1 
1 1 1 1 1 1 1 1 1 
1 1 1 1 1 1 1 1 1 
1 1 1 1 1 1 1 1 1 
1 1 1 1 1 1 1 1 1 
1 1 1 1 1 1 1 1 1 
1 1 1 1 1 1 1 1 1 
1 1 1 1 1 1 1 1 1 
1 1 1 1 1 1 1 1 1 
1 1 1 1 1 1 1 1 1 
1 1 1 1 1 1 1 1 1 
1 1 1 1 1 1 1 1 1 
1 1 1 1 1 1 1 1 1 
1 1 1 1 1 1 1 1 1 
1 1 1 1 1 1 1 1 1 
1 1 1 1 1 1 1 1 1 
1 1 1 1 1 1 1 1 1 
1 1 1 1 1 1 1 1 1 
1 1 1 1 1 1 1 1 1 
1 1 1 1 1 1 1 1 1 
1 1 1 1 1 1 1 1 1 
1 1 1 1 1 1 1 1 1 
1 1 1 1 1 1 1 1 1 
1 1 1 1 1 1 1 1 1 
1 1 1 1 1 1 1 1 1 
1 1 1 1 1 1 1 1 1 
1 1 1 1 1 1 1 1 1 
1 1 1 1 1 1 1 1 1 
1 1 1 1 1 1 1 1 1 
1 1 1 1 1 1 1 1 1 
1 1 1 1 1 1 1 1 1 
1 1 1 1 1 1 1 1 1 
1 1 1 1 1 1 1 1 1 
1 1 1 1 1 1 1 1 1 
1 1 1 1 1 1 1 1 1 
1 1 1 1 1 1 1 1 1 
1 1 1 1 1 1 1 1 1 
1 1 1 1 1 1 1 1 1 
1 1 1 1 1 1 1 1 1 
1 1 1 1 1 1 1 1 1 
1 1 1 1 1 1 1 1 1 
1 1 1 1 1 1 1 1 1 
1 1 1 1 1 1 1 1 1 
1 1 1 1 1 1 1 1 1 
1 1 1 1 1 1 1 1 1 
1 1 1 1 1 1 1 1 1 
1 1 1 1 1 1 1 1 1 
1 1 1 1 1 1 1 1 1 
1 1 1 1 1 1 1 1 1 
1 1 1 1 1 1 1 1 1 
1 1 1 1 1 1 1 1 1 
1 1 1 1 1 1 1 1 1 
1 1 1 1 1 1 1 1 1 
1 1 1 1 1 1 1 1 1 
1 1 1 1 1 1 1 1 1 
1 1 1 1 1 1 1 1 1 
1 1 1 1 1 1 1 1 1 
1 1 1 1 1 1 1 1 1 
1 1 1 1 1 1 1 1 1 
1 1 1 1 1 1 1 1 1 
1 1 1 1 1 1 1 1 1 
1 1 1 1 1 1 1 1 1 
1 1 1 1 1 1 1 1 1 
1 1 1 1 1 1 1 1 1 
1 1 1 1 1 1 1 1 1 
1 1 1 1 1 1 1 1 1 
1 1 1 1 1 1 1 1 1 
1 1 1 1 1 1 1 1 1 
1 1 1 1 1 1 1 1 1 
1 1 1 1 1 1 1 1 1 
1 1 1 1 1 1 1 1 1 
1 1 1 1 1 1 1 1 1 
1 1 1 1 1 1 1 1 1 
1 1 1 1 1 1 1 1 1 
1 1 1 1 1 1 1 1 1 
1 1 1 1 1 1 1 1 1 
1 1 1 1 1 1 1 1 1 
1 1 1 1 1 1 1 1 1 
1 1 1 1 1 1 1 1 1 
1 1 1 1 1 1 1 1 1 
1 1 1 1 1 1 1 1 1 
1 1 1 1 1 1 1 1 1 
1 1 1 1 1 1 1 1 1 
1 1 1 1 1 1 1 1 1 
1 1 1 1 1 1 1 1 1 
1 1 1 1 1 1 1 1 1 
1 1 1 1 1 1 1 1 1 
1 1 1 1 1 1 1 1 1 
1 1 1 1 1 1 1 1 1 
1 1 1 1 1 1 1 1 1 
1 1 1 1 1 1 1 1 1 
1 1 1 1 1 1 1 1 1 
1 1 1 1 1 1 1 1 1 
1 1 1 1 1 1 1 1 1 
1 1 1 1 1 1 1 1 1 
1 1 1 1 1 1 1 1 1 
1 1 1 1 1 1 1 1 1 
1 1 1 1 1 1 1 1 1 
1 1 1 1 1 1 1 1 1 
1 1 1 1 1 1 1 1 1 
1 1 1 1 1 1 1 1 1 
1 1 1 1 1 1 1 1 1 
1 1 1 1 1 1 1 1 1 
1 1 1 1 1 1 1 1 1 
1 1 1 1 1 1 1 1 1 
1 1 1 1 1 1 1 1 1 
1 1 1 1 1 1 1 1 1 
1 1 1 1 1 1 1 1 1 
1 1 1 1 1 1 1 1 1 
1 1 1 1 1 1 1 1 1 
1 1 1 1 1 1 1 1 1 
1 1 1 1 1 1 1 1 1 
1 1 1 1 1 1 1 1 1 
1 1 1 1 1 1 1 1 1 
1 1 1 1 1 1 1 1 1 
1 1 1 1 1 1 1 1 1 
1 1 1 1 1 1 1 1 1 
1 1 1 1 1 1 1 1 1 
1 1 1 1 1 1 1 1 1 
1 1 1 1 1 1 1 1 1 
1 1 1 1 1 1 1 1 1 
1 1 1 1 1 1 1 1 1 
1 1 1 1 1 1 1 1 1 
1 1 1 1 1 1 1 1 1 
1 1 1 1 1 1 1 1 1 
1 1 1 1 1 1 1 1 1 
1 1 1 1 1 1 1 1 1 
1 1 1 1 1 1 1 1 1 
1 1 1 1 1 1 1 1 1 
1 1 1 1 1 1 1 1 1 
1 1 1 1 1 1 1 1 1 
1 1 1 1 1 1 1 1 1 
1 1 1 1 1 1 1 1 1 
1 1 1 1 1 1 1 1 1 
1 1 1 1 1 1 1 1 1 
1 1 1 1 1 1 1 1 1 
1 1 1 1 1 1 1 1 1 
1 1 1 1 1 1 1 1 1 
1 1 1 1 1 1 1 1 1 
1 1 1 1 1 1 1 1 1 
1 1 1 1 1 1 1 1 1 
1 1 1 1 1 1 1 1 1 
1 1 1 1 1 1 1 1 1 
1 1 1 1 1 1 1 1 1 
1 1 1 1 1 1 1 1 1 
1 1 1 1 1 1 1 1 1 
1 1 1 1 1 1 1 1 1 
1 1 1 1 1 1 1 1 1 
1 1 1 1 1 1 1 1 1 
1 1 1 1 1 1 1 1 1 
1 1 1 1 1 1 1 1 1 
1 1 1 1 1 1 1 1 1 
1 1 1 1 1 1 1 1 1 
1 1 1 1 1 1 1 1 1 
1 1 1 1 1 1 1 1 1 
1 1 1 1 1 1 1 1 1 
1 1 1 1 1 1 1 1 1 
1 1 1 1 1 1 1 1 1 
1 1 1 1 1 1 1 1 1 
1 1 1 1 1 1 1 1 1 
1 1 1 1 1 1 1 1 1 
1 1 1 1 1 1 1 1 1 
1 1 1 1 1 1 1 1 1 
1 1 1 1 1 1 1 1 1 
1 1 1 1 1 1 1 1 1 
1 1 1 1 1 1 1 1 1 
1 1 1 1 1 1 1 1 1 
1 1 1 1 1 1 1 1 1 
1 1 1 1 1 1 1 1 1 
1 1 1 1 1 1 1 1 1 
1 1 1 1 1 1 1 1 1 
1 1 1 1 1 1 1 1 1 
1 1 1 1 1 1 1 1 1 
1 1 1 1 1 1 1 1 1 
1 1 1 1 1 1 1 1 1 
1 1 1 1 1 1 1 1 1 
1 1 1 1 1 1 1 1 1 
1 1 1 1 1 1 1 1 1 
1 1 1 1 1 1 1 1 1 
1 1 1 1 1 1 1 1 1 
1 1 1 1 1 1 1 1 1 
1 1 1 1 1 1 1 1 1 
1 1 1 1 1 1 1 1 1 
1 1 1 1 1 1 1 1 1 
1 1 1 1 1 1 1 1 1 
1 1 1 1 1 1 1 1 1 
1 1 1 1 1 1 1 1 1 
1 1 1 1 1 1 1 1 1 
1 1 1 1 1 1 1 1 1 
1 1 1 1 1 1 1 1 1 
1 1 1 1 1 1 1 1 1 
1 1 1 1 1 1 1 1 1 
1 1 1 1 1 1 1 1 1 
1 1 1 1 1 1 1 1 1 
1 1 1 1 1 1 1 1 1 
1 1 1 1 1 1 1 1 1 
1 1 1 1 1 1 1 1 1 
1 1 1 1 1 1 1 1 1 
1 1 1 1 1 1 1 1 1 
1 1 1 1 1 1 1 1 1 
1 1 1 1 1 1 1 1 1 
1 1 1 1 1 1 1 1 1 
1 1 1 1 1 1 1 1 1 
1 1 1 1 1 1 1 1 1 
1 1 1 1 1 1 1 1 1 
1 1 1 1 1 1 1 1 1 
1 1 1 1 1 1 1 1 1 
1 1 1 1 1 1 1 1 1 
1 1 1 1 1 1 1 1 1 
1 1 1 1 1 1 1 1 1 
1 1 1 1 1 1 1 1 1 
1 1 1 1 1 1 1 1 1 
1 1 1 1 1 1 1 1 1 
1 1 1 1 1 1 1 1 1 
1 1 1 1 1 1 1 1 1 
1 1 1 1 1 1 1 1 1 
1 1 1 1 1 1 1 1 1 
1 1 1 1 1 1 1 1 1 
1 1 1 1 1 1 1 1 1 
1 1 1 1 1 1 1 1 1 
1 1 1 1 1 1 1 1 1 
1 1 1 1 1 1 1 1 1 
1 1 1 1 1 1 1 1 1 
1 1 1 1 1 1 1 1 1 
1 1 1 1 1 1 1 1 1 
1 1 1 1 1 1 1 1 1 
1 1 1 1 1 1 1 1 1 
1 1 1 1 1 1 1 1 1 
1 1 1 1 1 1 1 1 1 
1 1 1 1 1 1 1 1 1 
1 1 1 1 1 1 1 1 1 
1 1 1 1 1 1 1 1 1 
1 1 1 1 1 1 1 1 1 
1 1 1 1 1 1 1 1 1 
1 1 1 1 1 1 1 1 1 
1 1 1 1 1 1 1 1 1 
1 1 1 1 1 1 1 1 1 
1 1 1 1 1 1 1 1 1 
1 1 1 1 1 1 1 1 1 
1 1 1 1 1 1 1 1 1 
1 1 1 1 1 1 1 1 1 
1 1 1 1 1 1 1 1 1 
1 1 1 1 1 1 1 1 1 
1 1 1 1 1 1 1 1 1 
1 1 1 1 1 1 1 1 1 
1 1 1 1 1 1 1 1 1 
1 1 1 1 1 1 1 1 1 
1 1 1 1 1 1 1 1 1 
1 1 1 1 1 1 1 1 1 
1 1 1 1 1 1 1 1 1 
1 1 1 1 1 1 1 1 1 
1 1 1 1 1 1 1 1 1 
1 1 1 1 1 1 1 1 1 
1 1 1 1 1 1 1 1 1 
1 1 1 1 1 1 1 1 1 
1 1 1 1 1 1 1 1 1 
1 1 1 1 1 1 1 1 1 
1 1 1 1 1 1 1 1 1 
1 1 1 1 1 1 1 1 1 
1 1 1 1 1 1 1 1 1 
1 1 1 1 1 1 1 1 1 
1 1 1 1 1 1 1 1 1 
1 1 1 1 1 1 1 1 1 
1 1 1 1 1 1 1 1 1 
1 1 1 1 1 1 1 1 1 
1 1 1 1 1 1 1 1 1 
1 1 1 1 1 1 1 1 1 
1 1 1 1 1 1 1 1 1 
1 1 1 1 1 1 1 1 1 
1 1 1 1 1 1 1 1 1 
1 1 1 1 1 1 1 1 1 
1 1 1 1 1 1 1 1 1 
1 1 1 1 1 1 1 1 1 
1 1 1 1 1 1 1 1 1 
1 1 1 1 1 1 1 1 1 
1 1 1 1 1 1 1 1 1 
1 1 1 1 1 1 1 1 1 
1 1 1 1 1 1 1 1 1 
1 1 1 1 1 1 1 1 1 
1 1 1 1 1 1 1 1 1 
1 1 1 1 1 1 1 1 1 
1 1 1 1 1 1 1 1 1 
1 1 1 1 1 1 1 1 1 
1 1 1 1 1 1 1 1 1 
1 1 1 1 1 1 1 1 1 
1 1 1 1 1 1 1 1 1 
1 1 1 1 1 1 1 1 1 
1 1 1 1 1 1 1 1 1 
1 1 1 1 1 1 1 1 1 
1 1 1 1 1 1 1 1 1 
1 1 1 1 1 1 1 1 1 
1 1 1 1 1 1 1 1 1 
1 1 1 1 1 1 1 1 1 
1 1 1 1 1 1 1 1 1 
1 1 1 1 1 1 1 1 1 
1 1 1 1 1 1 1 1 1 
1 1 1 1 1 1 1 1 1 
1 1 1 1 1 1 1 1 1 
1 1 1 1 1 1 1 1 1 
1 1 1 1 1 1 1 1 1 
1 1 1 1 1 1 1 1 1 
1 1 1 1 1 1 1 1 1 
1 1 1 1 1 1 1 1 1 
1 1 1 1 1 1 1 1 1 
1 1 1 1 1 1 1 1 1 
1 1 1 1 1 1 1 1 1 
1 1 1 1 1 1 1 1 1 
1 1 1 1 1 1 1 1 1 
1 1 1 1 1 1 1 1 1 
1 1 1 1 1 1 1 1 1 
1 1 1 1 1 1 1 1 1 
1 1 1 1 1 1 1 1 1 
1 1 1 1 1 1 1 1 1 
1 1 1 1 1 1 1 1 1 
1 1 1 1 1 1 1 1 1 
1 1 1 1 1 1 1 1 1 
1 1 1 1 1 1 1 1 1 
1 1 1 1 1 1 1 1 1 
1 1 1 1 1 1 1 1 1 
1 1 1 1 1 1 1 1 1 
1 1 1 1 1 1 1 1 1 
1 1 1 1 1 1 1 1 1 
1 1 1 1 1 1 1 1 1 
1 1 1 1 1 1 1 1 1 
1 1 1 1 1 1 1 1 1 
1 1 1 1 1 1 1 1 1 
1 1 1 1 1 1 1 1 1 
1 1 1 1 1 1 1 1 1 
1 1 1 1 1 1 1 1 1 
1 1 1 1 1 1 1 1 1 
1 1 1 1 1 1 1 1 1 
1 1 1 1 1 1 1 1 1 
1 1 1 1 1 1 1 1 1 
1 1 1 1 1 1 1 1 1 
1 1 1 1 1 1 1 1 1 
1 1 1 1 1 1 1 1 1 
1 1 1 1 1 1 1 1 1 
1 1 1 1 1 1 1 1 1 
1 1 1 1 1 1 1 1 1 
1 1 1 1 1 1 1 1 1 
1 1 1 1 1 1 1 1 1 
1 1 1 1 1 1 1 1 1 
1 1 1 1 1 1 1 1 1 
1 1 1 1 1 1 1 1 1 
1 1 1 1 1 1 1 1 1 
1 1 1 1 1 1 1 1 1 
1 1 1 1 1 1 1 1 1 
1 1 1 1 1 1 1 1 1 
1 1 1 1 1 1 1 1 1 
1 1 1 1 1 1 1 1 1 
1 1 1 1 1 1 1 1 1 
1 1 1 1 1 1 1 1 1 
1 1 1 1 1 1 1 1 1 
1 1 1 1 1 1 1 1 1 
1 1 1 1 1 1 1 1 1 
1 1 1 1 1 1 1 1 1 
1 1 1 1 1 1 1 1 1 
1 1 1 1 1 1 1 1 1 
1 1 1 1 1 1 1 1 1 
1 1 1 1 1 1 1 1 1 
1 1 1 1 1 1 1 1 1 
1 1 1 1 1 1 1 1 1 
1 1 1 1 1 1 1 1 1 
1 1 1 1 1 1 1 1 1 
1 1 1 1 1 1 1 1 1 
1 1 1 1 1 1 1 1 1 
1 1 1 1 1 1 1 1 1 
1 1 1 1 1 1 1 1 1 
1 1 1 1 1 1 1 1 1 
1 1 1 1 1 1 1 1 1 
1 1 1 1 1 1 1 1 1 
1 1 1 1 1 1 1 1 1 
1 1 1 1 1 1 1 1 1 
1 1 1 1 1 1 1 1 1 
1 1 1 1 1 1 1 1 1 
1 1 1 1 1 1 1 1 1 
1 1 1 1 1 1 1 1 1 
1 1 1 1 1 1 1 1 1 
1 1 1 1 1 1 1 1 1 
1 1 1 1 1 1 1 1 1 
1 1 1 1 1 1 1 1 1 
1 1 1 1 1 1 1 1 1 
1 1 1 1 1 1 1 1 1 
1 1 1 1 1 1 1 1 1 
1 1 1 1 1 1 1 1 1 
1 1 1 1 1 1 1 1 1 
1 1 1 1 1 1 1 1 1 
1 1 1 1 1 1 1 1 1 
1 1 1 1 1 1 1 1 1 
1 1 1 1 1 1 1 1 1 
1 1 1 1 1 1 1 1 1 
1 1 1 1 1 1 1 1 1 
1 1 1 1 1 1 1 1 1 
1 1 1 1 1 1 1 1 1 
1 1 1 1 1 1 1 1 1 
1 1 1 1 1 1 1 1 1 
1 1 1 1 1 1 1 1 1 
1 1 1 1 1 1 1 1 1 
1 1 1 1 1 1 1 1 1 
1 1 1 1 1 1 1 1 1 
1 1 1 1 1 1 1 1 1 
1 1 1 1 1 1 1 1 1 
1 1 1 1 1 1 1 1 1 
1 1 1 1 1 1 1 1 1 
1 1 1 1 1 1 1 1 1 
1 1 1 1 1 1 1 1 1 
1 1 1 1 1 1 1 1 1 
1 1 1 1 1 1 1 1 1 
1 1 1 1 1 1 1 1 1 
1 1 1 1 1 1 1 1 1 
1 1 1 1 1 1 1 1 1 
1 1 1 1 1 1 1 1 1 
1 1 1 1 1 1 1 1 1 
1 1 1 1 1 1 1 1 1 
1 1 1 1 1 1 1 1 1 
1 1 1 1 1 1 1 1 1 
1 1 1 1 1 1 1 1 1 
1 1 1 1 1 1 1 1 1 
1 1 1 1 1 1 1 1 1 
1 1 1 1 1 1 1 1 1 
1 1 1 1 1 1 1 1 1 
1 1 1 1 1 1 1 1 1 
1 1 1 1 1 1 1 1 1 
1 1 1 1 1 1 1 1 1 
1 1 1 1 1 1 1 1 1 
1 1 1 1 1 1 1 1 1 
1 1 1 1 1 1 1 1 1 
1 1 1 1 1 1 1 1 1 
1 1 1 1 1 1 1 1 1 
1 1 1 1 1 1 1 1 1 
1 1 1 1 1 1 1 1 1 
1 1 1 1 1 1 1 1 1 
1 1 1 1 1 1 1 1 1 
1 1 1 1 1 1 1 1 1 
1 1 1 1 1 1 1 1 1 
1 1 1 1 1 1 1 1 1 
1 1 1 1 1 1 1 1 1 
1 1 1 1 1 1 1 1 1 
1 1 1 1 1 1 1 1 1 
1 1 1 1 1 1 1 1 1 
1 1 1 1 1 1 1 1 1 
1 1 1 1 1 1 1 1 1 
1 1 1 1 1 1 1 1 1 
1 1 1 1 1 1 1 1 1 
1 1 1 1 1 1 1 1 1 
1 1 1 1 1 1 1 1 1 
1 1 1 1 1 1 1 1 1 
1 1 1 1 1 1 1 1 1 
1 1 1 1 1 1 1 1 1 
1 1 1 1 1 1 1 1 1 
1 1 1 1 1 1 1 1 1 
1 1 1 1 1 1 1 1 1 
1 1 1 1 1 1 1 1 1 
1 1 1 1 1 1 1 1 1 
1 1 1 1 1 1 1 1 1 
1 1 1 1 1 1 1 1 1 
1 1 1 1 1 1 1 1 1 
1 1 1 1 1 1 1 1 1 
1 1 1 1 1 1 1 1 1 
1 1 1 1 1 1 1 1 1 
1 1 1 1 1 1 1 1 1 
1 1 1 1 1 1 1 1 1 
1 1 1 1 1 1 1 1 1 
1 1 1 1 1 1 1 1 1 
1 1 1 1 1 1 1 1 1 
1 1 1 1 1 1 1 1 1 
1 1 1 1 1 1 1 1 1 
1 1 1 1 1 1 1 1 1 
1 1 1 1 1 1 1 1 1 
1 1 1 1 1 1 1 1 1 
1 1 1 1 1 1 1 1 1 
1 1 1 1 1 1 1 1 1 
1 1 1 1 1 1 1 1 1 
1 1 1 1 1 1 1 1 1 
1 1 1 1 1 1 1 1 1 
1 1 1 1 1 1 1 1 1 
1 1 1 1 1 1 1 1 1 
1 1 1 1 1 1 1 1 1 
1 1 1 1 1 1 1 1 1 
1 1 1 1 1 1 1 1 1 
1 1 1 1 1 1 1 1 1 
1 1 1 1 1 1 1 1 1 
1 1 1 1 1 1 1 1 1 
1 1 1 1 1 1 1 1 1 
1 1 1 1 1 1 1 1 1 
1 1 1 1 1 1 1 1 1 
1 1 1 1 1 1 1 1 1 
1 1 1 1 1 1 1 1 1 
1 1 1 1 1 1 1 1 1 
1 1 1 1 1 1 1 1 1 
1 1 1 1 1 1 1 1 1 
1 1 1 1 1 1 1 1 1 
1 1 1 1 1 1 1 1 1 
1 1 1 1 1 1 1 1 1 
1 1 1 1 1 1 1 1 1 
1 1 1 1 1 1 1 1 1 
1 1 1 1 1 1 1 1 1 
1 1 1 1 1 1 1 1 1 
1 1 1 1 1 1 1 1 1 
1 1 1 1 1 1 1 1 1 
1 1 1 1 1 1 1 1 1 
1 1 1 1 1 1 1 1 1 
1 1 1 1 1 1 1 1 1 
1 1 1 1 1 1 1 1 1 
1 1 1 1 1 1 1 1 1 
1 1 1 1 1 1 1 1 1 
1 1 1 1 1 1 1 1 1 
1 1 1 1 1 1 1 1 1 
1 1 1 1 1 1 1 1 1 
1 1 1 1 1 1 1 1 1 
1 1 1 1 1 1 1 1 1 
1 1 1 1 1 1 1 1 1 
1 1 1 1 1 1 1 1 1 
1 1 1 1 1 1 1 1 1 
1 1 1 1 1 1 1 1 1 
1 1 1 1 1 1 1 1 1 
1 1 1 1 1 1 1 1 1 
1 1 1 1 1 1 1 1 1 
1 1 1 1 1 1 1 1 1 
1 1 1 1 1 1 1 1 1 
1 1 1 1 1 1 1 1 1 
1 1 1 1 1 1 1 1 1 
1 1 1 1 1 1 1 1 1 
1 1 1 1 1 1 1 1 1 
1 1 1 1 1 1 1 1 1 
1 1 1 1 1 1 1 1 1 
1 1 1 1 1 1 1 1 1 
1 1 1 1 1 1 1 1 1 
1 1 1 1 1 1 1 1 1 
1 1 1 1 1 1 1 1 1 
1 1 1 1 1 1 1 1 1 
1 1 1 1 1 1 1 1 1 
1 1 1 1 1 1 1 1 1 
1 1 1 1 1 1 1 1 1 
1 1 1 1 1 1 1 1 1 
1 1 1 1 1 1 1 1 1 
1 1 1 1 1 1 1 1 1 
1 1 1 1 1 1 1 1 1 
1 1 1 1 1 1 1 1 1 
1 1 1 1 1 1 1 1 1 
1 1 1 1 1 1 1 1 1 
1 1 1 1 1 1 1 1 1 
1 1 1 1 1 1 1 1 1 
1 1 1 1 1 1 1 1 1 
1 1 1 1 1 1 1 1 1 
1 1 1 1 1 1 1 1 1 
1 1 1 1 1 1 1 1 1 
1 1 1 1 1 1 1 1 1 
1 1 1 1 1 1 1 1 1 
1 1 1 1 1 1 1 1 1 
1 1 1 1 1 1 1 1 1 
1 1 1 1 1 1 1 1 1 
1 1 1 1 1 1 1 1 1 
1 1 1 1 1 1 1 1 1 
1 1 1 1 1 1 1 1 1 
1 1 1 1 1 1 1 1 1 
1 1 1 1 1 1 1 1 1 
1 1 1 1 1 1 1 1 1 
1 1 1 1 1 1 1 1 1 
1 1 1 1 1 1 1 1 1 
1 1 1 1 1 1 1 1 1 
1 1 1 1 1 1 1 1 1 
1 1 1 1 1 1 1 1 1 
1 1 1 1 1 1 1 1 1 
1 1 1 1 1 1 1 1 1 
1 1 1 1 1 1 1 1 1 
1 1 1 1 1 1 1 1 1 
1 1 1 1 1 1 1 1 1 
1 1 1 1 1 1 1 1 1 
1 1 1 1 1 1 1 1 1 
1 1 1 1 1 1 1 1 1 
1 1 1 1 1 1 1 1 1 
1 1 1 1 1 1 1 1 1 
1 1 1 1 1 1 1 1 1 
1 1 1 1 1 1 1 1 1 
1 1 1 1 1 1 1 1 1 
1 1 1 1 1 1 1 1 1 
1 1 1 1 1 1 1 1 1 
1 1 1 1 1 1 1 1 1 
1 1 1 1 1 1 1 1 1 
1 1 1 1 1 1 1 1 1 
1 1 1 1 1 1 1 1 1 
1 1 1 1 1 1 1 1 1 
1 1 1 1 1 1 1 1 1 
1 1 1 1 1 1 1 1 1 
1 1 1 1 1 1 1 1 1 
1 1 1 1 1 1 1 1 1 
1 1 1 1 1 1 1 1 1 
1 1 1 1 1 1 1 1 1 
1 1 1 1 1 1 1 1 1 
1 1 1 1 1 1 1 1 1 
1 1 1 1 1 1 1 1 1 
1 1 1 1 1 1 1 1 1 
1 1 1 1 1 1 1 1 1 
1 1 1 1 1 1 1 1 1 
1 1 1 1 1 1 1 1 1 
1 1 1 1 1 1 1 1 1 
1 1 1 1 1 1 1 1 1 
1 1 1 1 1 1 1 1 1 
1 1 1 1 1 1 1 1 1 
1 1 1 1 1 1 1 1 1 
1 1 1 1 1 1 1 1 1 
1 1 1 1 1 1 1 1 1 
1 1 1 1 1 1 1 1 1 
1 1 1 1 1 1 1 1 1 
1 1 1 1 1 1 1 1 1 
1 1 1 1 1 1 1 1 1 
1 1 1 1 1 1 1 1 1 
1 1 1 1 1 1 1 1 1 
1 1 1 1 1 1 1 1 1 
1 1 1 1 1 1 1 1 1 
1 1 1 1 1 1 1 1 1 
1 1 1 1 1 1 1 1 1 
1 1 1 1 1 1 1 1 1 
1 1 1 1 1 1 1 1 1 
1 1 1 1 1 1 1 1 1 
1 1 1 1 1 1 1 1 1 
1 1 1 1 1 1 1 1 1 
1 1 1 1 1 1 1 1 1 
1 1 1 1 1 1 1 1 1 
1 1 1 1 1 1 1 1 1 
1 1 1 1 1 1 1 1 1 
1 1 1 1 1 1 1 1 1 
1 1 1 1 1 1 1 1 1 
1 1 1 1 1 1 1 1 1 
1 1 1 1 1 1 1 1 1 
1 1 1 1 1 1 1 1 1 
1 1 1 1 1 1 1 1 1 
1 1 1 1 1 1 1 1 1 
1 1 1 1 1 1 1 1 1 
1 1 1 1 1 1 1 1 1 
1 1 1 1 1 1 1 1 1 
1 1 1 1 1 1 1 1 1 
1 1 1 1 1 1 1 1 1 
1 1 1 1 1 1 1 1 1 
1 1 1 1 1 1 1 1 1 
1 1 1 1 1 1 1 1 1 
1 1 1 1 1 1 1 1 1 
1 1 1 1 1 1 1 1 1 
1 1 1 1 1 1 1 1 1 
1 1 1 1 1 1 1 1 1 
1 1 1 1 1 1 1 1 1 
1 1 1 1 1 1 1 1 1 
1 1 1 1 1 1 1 1 1 
1 1 1 1 1 1 1 1 1 
1 1 1 1 1 1 1 1 1 
1 1 1 1 1 1 1 1 1 
1 1 1 1 1 1 1 1 1 
1 1 1 1 1 1 1 1 1 
1 1 1 1 1 1 1 1 1 
1 1 1 1 1 1 1 1 1 
1 1 1 1 1 1 
NORMALS normals float
0 0 -1 0 -0.999941 -0.0108689 -0.703274 0 -0.710919 
0.703274 0 -0.710919 -0.0107521 0 -0.999942 -0.00764406 -0.703254 -0.710898 
-0.57942 -0.573189 -0.57942 0.0107521 0 -0.999942 0.00764406 -0.703254 -0.710898 
0.707107 0 -0.707107 0 0.703274 -0.710919 0 0 -1 
-0.575258 -0.575258 -0.581511 -0.575258 -0.575258 -0.581511 0.571052 0.577328 -0.583603 
0.575258 0.575258 -0.581511 0.00764406 0.703254 -0.710898 0 0 -1 
-0.575258 -0.575258 -0.581511 -0.575258 -0.575258 -0.581511 0.575258 0.575258 -0.581511 
0.575258 0.575258 -0.581511 0 0 -1 -0.575258 -0.575258 -0.581511 
-0.575258 -0.575258 -0.581511 0.575258 0.575258 -0.581511 0.575258 0.575258 -0.581511 
-0.0107514 -0.0107514 -0.999884 -0.00760308 -0.707086 -0.707086 -0.707086 -0.00760308 -0.707086 
0.0107521 0 -0.999942 -0.571052 -0.577328 -0.583603 0.575258 0.575258 -0.581511 
0.57942 0.573189 -0.57942 0 0.0107521 -0.999942 -0.577328 -0.571052 -0.583603 
0.573189 0.57942 -0.57942 0.57942 0.573189 -0.57942 -0.0107514 -0.0107514 -0.999884 
-0.00760308 -0.707086 -0.707086 -0.707086 -0.00760308 -0.707086 0.0107521 0 -0.999942 
-0.571052 -0.577328 -0.583603 0.573189 0.57942 -0.57942 0.57942 0.573189 -0.57942 
0 0 -1 -0.575258 -0.575258 -0.581511 0.575258 0.575258 -0.581511 
0.57942 0.573189 -0.57942 -0.0107514 -0.0107514 -0.999884 -0.00760308 -0.707086 -0.707086 
-0.707086 -0.00760308 -0.707086 0 0 -1 -0.575258 -0.575258 -0.581511 
0.0107514 0.0107514 -0.999884 0.707086 0.00760308 -0.707086 0 0 -1 
-0.575258 -0.575258 -0.581511 0.575258 0.575258 -0.581511 0.575258 0.575258 -0.581511 
0.00760308 0.707086 -0.707086 -0.0107521 0 -0.999942 -0.57942 -0.573189 -0.57942 
-0.57942 -0.573189 -0.57942 0.0107514 0.0107514 -0.999884 0.707086 0.00760308 -0.707086 
0 -0.0107521 -0.999942 -0.573189 -0.57942 -0.57942 -0.703254 -0.00764406 -0.710898 
0.571052 0.577328 -0.583603 0.577328 0.571052 -0.583603 0.00760308 0.707086 -0.707086 
0 0 -1 -0.703274 0 -0.710919 0.703274 0 -0.710919 
0 0.0107521 -0.999942 -0.577328 -0.571052 -0.583603 0.703254 0.00764406 -0.710898 
-0.0107514 -0.0107514 -0.999884 -0.00760308 -0.707086 -0.707086 -0.707086 -0.00760308 -0.707086 
0.0107521 0 -0.999942 -0.571052 -0.577328 -0.583603 0.573189 0.57942 -0.57942 
0.57942 0.573189 -0.57942 0 0 -1 -0.703274 0 -0.710919 
0.575258 0.575258 -0.581511 0.57942 0.573189 -0.57942 0 0 -1 
-0.703274 0 -0.710919 0.703274 0 -0.710919 0 0.0107521 -0.999942 
-0.577328 -0.571052 -0.583603 0.703254 0.00764406 -0.710898 0 0 -1 
-0.575258 -0.575258 -0.581511 -0.999941 0 -0.0108689 0.573189 0.57942 -0.57942 
0.575258 0.575258 -0.581511 0 0.703274 -0.710919 -0.00760308 -0.707086 -0.707086 
-0.00760308 -0.707086 -0.707086 -0.57735 -0.57735 -0.57735 0 -0.707107 -0.707107 
0 -0.707107 -0.707107 -0.703254 -0.00764406 -0.710898 0 -0.707107 -0.707107 
0 -0.710919 -0.703274 0.703254 -0.00764406 -0.710898 0 -0.707107 -0.707107 
0.0107521 0 -0.999942 0.00764406 -0.703254 -0.710898 0.999942 0 -0.0107521 
-0.57735 -0.57735 -0.57735 -0.57735 -0.57735 -0.57735 -0.57735 -0.57735 -0.57735 
0.703254 0.00764406 -0.710898 0 0.707107 -0.707107 0.0107514 0.0107514 -0.999884 
0.707086 0.707086 -0.00760308 0.710898 0.703254 -0.00764406 -0.57735 -0.57735 -0.57735 
-0.57735 -0.57735 -0.57735 -0.57735 -0.57735 -0.57735 0.575258 0.575258 -0.581511 
0.00760308 0.707086 -0.707086 0.707086 0.707086 -0.00760308 0.703254 0.710898 -0.00764406 
0 0.999942 -0.0107521 0.0107514 0.999884 -0.0107514 -0.57735 -0.57735 -0.57735 
-0.57735 -0.57735 -0.57735 -0.57735 -0.57735 -0.57735 0.575258 0.575258 -0.581511 
0.0107514 0.0107514 -0.999884 0.57735 0.57735 -0.57735 0.57735 0.57735 -0.57735 
-0.0107514 -0.0107514 -0.999884 -0.00760308 -0.707086 -0.707086 -0.57735 -0.57735 -0.57735 
0 -0.707107 -0.707107 0 -0.707107 -0.707107 -0.573189 -0.57942 -0.57942 
-0.573189 -0.57942 -0.57942 0.575258 0.575258 -0.581511 0.0107514 0.0107514 -0.999884 
0.707086 0.707086 -0.00760308 0.707086 0.707086 -0.00760308 -0.0107514 -0.0107514 -0.999884 
-0.57735 -0.57735 -0.57735 -0.57735 -0.57735 -0.57735 -0.703274 0 -0.710919 
0.575258 0.575258 -0.581511 0.0107514 0.0107514 -0.999884 0.57735 0.57735 -0.57735 
0.57735 0.57735 -0.57735 -0.0107514 -0.0107514 -0.999884 -0.57735 -0.57735 -0.57735 
-0.57735 -0.57735 -0.57735 0 -0.703274 -0.710919 -0.575258 -0.575258 -0.581511 
0.575258 0.575258 -0.581511 0.0107514 0.0107514 -0.999884 0.707086 0.707086 -0.00760308 
0.707086 0.707086 -0.00760308 -0.0107514 -0.0107514 -0.999884 -0.57735 -0.57735 -0.57735 
-0.57735 -0.57735 -0.57735 -0.703274 0 -0.710919 0.575258 0.575258 -0.581511 
0.0107514 0.0107514 -0.999884 0.57735 0.57735 -0.57735 0.57735 0.57735 -0.57735 
-0.0107514 -0.0107514 -0.999884 -0.57735 -0.57735 -0.57735 -0.707086 -0.00760308 -0.707086 
0 -0.703274 -0.710919 -0.575258 -0.575258 -0.581511 0.575258 0.575258 -0.581511 
0.0107521 0 -0.999942 0.710898 0.703254 -0.00764406 0.707086 0.707086 -0.00760308 
-0.707107 0 -0.707107 -0.707107 0 -0.707107 0.703274 0 -0.710919 
0.0107521 0 -0.999942 0.999942 0 -0.0107521 -0.57942 -0.573189 -0.57942 
-0.57942 -0.573189 -0.57942 0.575258 0.575258 -0.581511 0 0.703274 -0.710919 
0 0 -1 0.0107514 0.0107514 -0.999884 0.999884 0.0107514 -0.0107514 
-0.57735 -0.57735 -0.57735 -0.57735 -0.57735 -0.57735 -0.57735 -0.57735 -0.57735 