# vtk DataFile Version 3.0
vtk output
ASCII
DATASET POLYDATA
POINTS 4192 float
127 56 13.0098 127 55.0098 14 126.01 56 14 
128 56 13.0098 128 55.0098 14 129 56 13.0098 
129 55.0098 14 130 56 13.0098 130 55.0098 14 
131 56 13.0098 131 55.0098 14 132 56 13.0098 
132 55.0098 14 132.99 56 14 127 57 13.0098 
126.01 57 14 128 57 13.0098 129 57 13.0098 
130 57 13.0098 131 57 13.0098 132 57 13.0098 
132.99 57 14 127 57.9902 14 128 57.9902 14 
128.01 58 14 129 58 13.0098 130 58 13.0098 
131 58 13.0098 132 58 13.0098 133 57.0098 14 
133 58 13.0098 134 58 13.0098 134 57.0098 14 
134.99 58 14 129 59 13.0098 128.01 59 14 
130 59 13.0098 131 59 13.0098 132 59 13.0098 
133 59 13.0098 134 59 13.0098 134.99 59 14 
129 59.9902 14 130 59.9902 14 130.01 60 14 
131 60 13.0098 132 60 13.0098 133 60 13.0098 
134 60 13.0098 134.99 60 14 131 61 13.0098 
130.01 61 14 132 61 13.0098 133 61 13.0098 
134 61 13.0098 134.99 61 14 131 61.9902 14 
132 61.9902 14 132.01 62 14 133 62 13.0098 
134 62 13.0098 135 61.0098 14 135 62 13.0098 
136 62 13.0098 136 61.0098 14 136.99 62 14 
133 63 13.0098 132.01 63 14 134 63 13.0098 
135 63 13.0098 136 63 13.0098 136.99 63 14 
133 64 13.0098 132.01 64 14 134 64 13.0098 
135 64 13.0098 136 64 13.0098 136.99 64 14 
133 65 13.0098 132.01 65 14 134 65 13.0098 
135 65 13.0098 136 65 13.0098 136.99 65 14 
133 66 13.0098 132.01 66 14 134 66 13.0098 
135 66 13.0098 136 66 13.0098 136.99 66 14 
133 67 13.0098 132.01 67 14 134 67 13.0098 
135 67 13.0098 136 67 13.0098 136.99 67 14 
133 67.9902 14 134 67.9902 14 134.01 68 14 
135 68 13.0098 136 68 13.0098 136.99 68 14 
135 69 13.0098 134.01 69 14 136 69 13.0098 
136.99 69 14 135 70 13.0098 134.01 70 14 
136 70 13.0098 136.99 70 14 135 71 13.0098 
134.01 71 14 136 71 13.0098 136.99 71 14 
135 72 13.0098 134.01 72 14 136 72 13.0098 
136.99 72 14 135 73 13.0098 134.01 73 14 
135.99 73 14 136 72.9902 14 135 73.9902 14 
126 55 14.0098 126 54.0098 15 125.01 55 15 
127 55 14.0098 127 54.0098 15 128 55 14.0098 
128 54.0098 15 129 55 14.0098 129 54.0098 15 
130 55 14.0098 130 54.0098 15 131 55 14.0098 
131 54.0098 15 131.99 55 15 126 55.9902 15 
126.01 56 15 132 55.0098 15 132.99 56 15 
126.01 57 15 133 56.0098 15 133 57 14.0098 
134 57 14.0098 134 56.0098 15 134.99 57 15 
127 57.9902 15 128 57.9902 15 128.01 58 15 
134.99 58 15 128.01 59 15 134.99 59 15 
129 59.9902 15 130 59.9902 15 130.01 60 15 
134.99 60 15 130.01 61 15 135 60.0098 15 
135 61 14.0098 135.99 61 15 131 61.9902 15 
132 62 14.0098 131.01 62 15 136 61.0098 15 
136.99 62 15 132 63 14.0098 131.01 63 15 
136.99 63 15 132 63.9902 15 132.01 64 15 
136.99 64 15 132.01 65 15 136.99 65 15 
132.01 66 15 136.99 66 15 132.01 67 15 
136.99 67 15 133 67.9902 15 134 67.9902 15 
134.01 68 15 136.99 68 15 134.01 69 15 
136.99 69 15 134.01 70 15 136.99 70 15 
134.01 71 15 136.99 71 15 134.01 72 15 
136.99 72 15 134.01 73 15 136 73 14.0098 
136.99 73 15 135 73.9902 15 136 73.9902 15 
117 50 15.0098 117 49.0098 16 116.01 50 16 
118 50 15.0098 118 49.0098 16 119 50 15.0098 
119 49.0098 16 120 50 15.0098 120 49.0098 16 
121 50 15.0098 121 49.0098 16 122 50 15.0098 
122 49.0098 16 123 50 15.0098 123 49.0098 16 
124 50 15.0098 124 49.0098 16 125 50 15.0098 
125 49.0098 16 126 50 15.0098 126 49.0098 16 
126.99 50 16 117 51 15.0098 116.01 51 16 
118 51 15.0098 119 51 15.0098 120 51 15.0098 
121 51 15.0098 122 51 15.0098 123 51 15.0098 
124 51 15.0098 125 51 15.0098 126 51 15.0098 
126.99 51 16 117 51.9902 16 118 51.9902 16 
118.01 52 16 119 52 15.0098 120 52 15.0098 
121 52 15.0098 122 52 15.0098 123 52 15.0098 
124 52 15.0098 125 52 15.0098 126 52 15.0098 
127 51.0098 16 127 52 15.0098 128 52 15.0098 
128 51.0098 16 129 52 15.0098 129 51.0098 16 
130 52 15.0098 130 51.0098 16 130.99 52 16 
119 53 15.0098 118.01 53 16 120 53 15.0098 
121 53 15.0098 122 53 15.0098 123 53 15.0098 
124 53 15.0098 125 53 15.0098 126 53 15.0098 
127 53 15.0098 128 53 15.0098 129 53 15.0098 
130 53 15.0098 130.99 53 16 119 53.9902 16 
120 53.9902 16 121 53.9902 16 122 53.9902 16 
122.01 54 16 123 54 15.0098 124 54 15.0098 
125 54 15.0098 126 54 15.0098 127 54 15.0098 
128 54 15.0098 129 54 15.0098 130 54 15.0098 
131 53.0098 16 131 54 15.0098 132 54 15.0098 
132 53.0098 16 132.99 54 16 123 55 15.0098 
122.01 55 16 124 55 15.0098 125 55 15.0098 
132 55 15.0098 132.99 55 16 123 55.9902 16 
124 55.9902 16 125 55.9902 16 126 55.9902 16 
126.01 56 16 133 56 15.0098 133 55.0098 16 
134 56 15.0098 134 55.0098 16 135 56 15.0098 
135 55.0098 16 136 56 15.0098 136 55.0098 16 
136.99 56 16 126.01 57 16 135 57 15.0098 
136 57 15.0098 136.99 57 16 127 57.9902 16 
128 57.9902 16 128.01 58 16 135 58 15.0098 
136 58 15.0098 136.99 58 16 128.01 59 16 
135 59 15.0098 136 59 15.0098 136.99 59 16 
129 59.9902 16 130 59.9902 16 130.01 60 16 
135 60 15.0098 136 60 15.0098 136.99 60 16 
130.01 61 16 136 61 15.0098 136.99 61 16 
131 62 15.0098 130.01 62 16 137 62 15.0098 
137 61.0098 16 138 62 15.0098 138 61.0098 16 
138.99 62 16 131 63 15.0098 130.01 63 16 
137 63 15.0098 138 63 15.0098 138.99 63 16 
131 63.9902 16 132 63.9902 16 132.01 64 16 
137 64 15.0098 138 64 15.0098 138.99 64 16 
132.01 65 16 137 65 15.0098 138 65 15.0098 
138.99 65 16 132.01 66 16 137 66 15.0098 
138 66 15.0098 138.99 66 16 132.01 67 16 
137 67 15.0098 138 67 15.0098 138.99 67 16 
133 67.9902 16 134 67.9902 16 134.01 68 16 
137 68 15.0098 138 68 15.0098 138.99 68 16 
134.01 69 16 137 69 15.0098 138 69 15.0098 
138.99 69 16 134.01 70 16 137 70 15.0098 
138 70 15.0098 139 69.0098 16 139 70 15.0098 
140 70 15.0098 140 69.0098 16 140.99 70 16 
134.01 71 16 137 71 15.0098 138 71 15.0098 
139 71 15.0098 140 71 15.0098 140.99 71 16 
134.01 72 16 137 72 15.0098 138 72 15.0098 
139 72 15.0098 140 72 15.0098 140.99 72 16 
134.01 73 16 137 73 15.0098 138 73 15.0098 
139 73 15.0098 140 73 15.0098 140.99 73 16 
135 73.9902 16 136 73.9902 16 137 74 15.0098 
136.01 74 16 138 74 15.0098 139 74 15.0098 
140 74 15.0098 140.99 74 16 137 75 15.0098 
136.01 75 16 138 75 15.0098 139 75 15.0098 
140 75 15.0098 140.99 75 16 137 76 15.0098 
136.01 76 16 138 76 15.0098 139 76 15.0098 
140 76 15.0098 140.99 76 16 137 77 15.0098 
136.01 77 16 138 77 15.0098 139 77 15.0098 
139.99 77 16 140 76.9902 16 137 78 15.0098 
136.01 78 16 138 78 15.0098 138.99 78 16 
139 77.9902 16 137 79 15.0098 136.01 79 16 
137.99 79 16 138 78.9902 16 137 79.9902 16 
116 49 16.0098 116 48.0098 17 115.01 49 17 
117 49 16.0098 117 48.0098 17 118 49 16.0098 
118 48.0098 17 119 49 16.0098 119 48.0098 17 
120 49 16.0098 120 48.0098 17 121 49 16.0098 
121 48.0098 17 122 49 16.0098 122 48.0098 17 
122.99 49 17 116 49.9902 17 116.01 50 17 
123 49.0098 17 124 49.0098 17 125 49.0098 17 
126 49.0098 17 126.99 50 17 116.01 51 17 
127 50.0098 17 127 51 16.0098 128 51 16.0098 
128 50.0098 17 128.99 51 17 117 51.9902 17 
118 51.9902 17 118.01 52 17 129 51.0098 17 
130 51.0098 17 130.99 52 17 118.01 53 17 
131 52.0098 17 131 53 16.0098 131.99 53 17 
119 53.9902 17 120 53.9902 17 121 53.9902 17 
122 53.9902 17 122.01 54 17 132 53.0098 17 
132.99 54 17 122.01 55 17 133 54.0098 17 
133 55 16.0098 134 55 16.0098 134 54.0098 17 
134.99 55 17 123 55.9902 17 124 55.9902 17 
125 55.9902 17 126 56 16.0098 125.01 56 17 
135 55.0098 17 136 55.0098 17 136.99 56 17 
126 56.9902 17 126.01 57 17 136.99 57 17 
127 57.9902 17 128 58 16.0098 127.01 58 17 
136.99 58 17 128 58.9902 17 128.01 59 17 
136.99 59 17 129 59.9902 17 130 60 16.0098 
129.01 60 17 136.99 60 17 130 61 16.0098 
129.01 61 17 137 60.0098 17 137 61 16.0098 
137.99 61 17 130 61.9902 17 130.01 62 17 
138 61.0098 17 138.99 62 17 130.01 63 17 
138.99 63 17 131 63.9902 17 132 64 16.0098 
131.01 64 17 138.99 64 17 132 65 16.0098 
131.01 65 17 138.99 65 17 132 65.9902 17 
132.01 66 17 138.99 66 17 132.01 67 17 
138.99 67 17 133 67.9902 17 134 68 16.0098 
133.01 68 17 138.99 68 17 134 69 16.0098 
133.01 69 17 139 68.0098 17 139 69 16.0098 
140 69 16.0098 140 68.0098 17 140.99 69 17 
134 70 16.0098 133.01 70 17 140.99 70 17 
134 71 16.0098 133.01 71 17 140.99 71 17 
134 71.9902 17 134.01 72 17 140.99 72 17 
134.01 73 17 140.99 73 17 135 73.9902 17 
136 74 16.0098 135.01 74 17 140.99 74 17 
136 75 16.0098 135.01 75 17 140.99 75 17 
136 76 16.0098 135.01 76 17 140.99 76 17 
136 77 16.0098 135.01 77 17 139.99 77 17 
140 76.9902 17 136 78 16.0098 135.01 78 17 
138.99 78 17 139 77.9902 17 135 79 16.0098 
135 78.0098 17 134.01 79 17 136 79 16.0098 
138 79 16.0098 138.99 79 17 135 79.9902 17 
136 79.9902 17 137 79.9902 17 138 79.9902 17 
107 48 17.0098 107 47.0098 18 106.01 48 18 
108 48 17.0098 108 47.0098 18 109 48 17.0098 
109 47.0098 18 110 48 17.0098 110 47.0098 18 
111 48 17.0098 111 47.0098 18 112 48 17.0098 
112 47.0098 18 113 48 17.0098 113 47.0098 18 
114 48 17.0098 114 47.0098 18 115 48 17.0098 
115 47.0098 18 116 48 17.0098 116 47.0098 18 
117 48 17.0098 117 47.0098 18 118 48 17.0098 
118 47.0098 18 119 48 17.0098 119 47.0098 18 
120 48 17.0098 120 47.0098 18 121 48 17.0098 
121 47.0098 18 122 48 17.0098 122 47.0098 18 
122.99 48 18 107 49 17.0098 106.01 49 18 
108 49 17.0098 109 49 17.0098 110 49 17.0098 
111 49 17.0098 112 49 17.0098 113 49 17.0098 
114 49 17.0098 115 49 17.0098 122.99 49 18 
107 49.9902 18 108 49.9902 18 109 49.9902 18 
110 49.9902 18 111 49.9902 18 112 49.9902 18 
113 49.9902 18 114 49.9902 18 115 49.9902 18 
116 49.9902 18 116.01 50 18 123 49.0098 18 
124 49.0098 18 125 49.0098 18 126 49.0098 18 
127 50 17.0098 127 49.0098 18 128 50 17.0098 
128 49.0098 18 128.99 50 18 116.01 51 18 
128.99 51 18 117 51.9902 18 118 51.9902 18 
118.01 52 18 129 51.0098 18 130 51.0098 18 
131 52 17.0098 131 51.0098 18 132 52 17.0098 
132 51.0098 18 132.99 52 18 118.01 53 18 
132 53 17.0098 132.99 53 18 119 53.9902 18 
120 53.9902 18 121 53.9902 18 122 53.9902 18 
122.01 54 18 133 54 17.0098 133 53.0098 18 
134 54 17.0098 134 53.0098 18 134.99 54 18 
122.01 55 18 134.99 55 18 123 55.9902 18 
124 55.9902 18 125 56 17.0098 124.01 56 18 
135 55.0098 18 136 55.0098 18 136.99 56 18 
125 57 17.0098 124.01 57 18 126 57 17.0098 
[...]
POINT_DATA 4192
SCALARS scalars float
LOOKUP_TABLE default
1 1 1 1 1 1 1 1 1 
1 1 1 1 1 1 1 1 1 
1 1 1 1 1 1 1 1 1 
1 1 1 1 1 1 1 1 1 
1 1 1 1 1 1 1 1 1 
1 1 1 1 1 1 1 1 1 
1 1 1 1 1 1 1 1 1 
1 1 1 1 1 1 1 1 1 
1 1 1 1 1 1 1 1 1 
1 1 1 1 1 1 1 1 1 
1 1 1 1 1 1 1 1 1 
1 1 1 1 1 1 1 1 1 
1 1 1 1 1 1 1 1 1 
1 1 1 1 1 1 1 1 1 
1 1 1 1 1 1 1 1 1 
1 1 1 1 1 1 1 1 1 
1 1 1 1 1 1 1 1 1 
1 1 1 1 1 1 1 1 1 
1 1 1 1 1 1 1 1 1 
1 1 1 1 1 1 1 1 1 
1 1 1 1 1 1 1 1 1 
1 1 1 1 1 1 1 1 1 
1 1 1 1 1 1 1 1 1 
1 1 1 1 1 1 1 1 1 
1 1 1 1 1 1 1 1 1 
1 1 1 1 1 1 1 1 1 
1 1 1 1 1 1 1 1 1 
1 1 1 1 1 1 1 1 1 
1 1 1 1 1 1 1 1 1 
1 1 1 1 1 1 1 1 1 
1 1 1 1 1 1 1 1 1 
1 1 1 1 1 1 1 1 1 
1 1 1 1 1 1 1 1 1 
1 1 1 1 1 1 1 1 1 
1 1 1 1 1 1 1 1 1 
1 1 1 1 1 1 1 1 1 
1 1 1 1 1 1 1 1 1 
1 1 1 1 1 1 1 1 1 
1 1 1 1 1 1 1 1 1 
1 1 1 1 1 1 1 1 1 
1 1 1 1 1 1 1 1 1 
1 1 1 1 1 1 1 1 1 
1 1 1 1 1 1 1 1 1 
1 1 1 1 1 1 1 1 1 
1 1 1 1 1 1 1 1 1 
1 1 1 1 1 1 1 1 1 
1 1 1 1 1 1 1 1 1 
1 1 1 1 1 1 1 1 1 
1 1 1 1 1 1 1 1 1 
1 1 1 1 1 1 1 1 1 
1 1 1 1 1 1 1 1 1 
1 1 1 1 1 1 1 1 1 
1 1 1 1 1 1 1 1 1 
1 1 1 1 1 1 1 1 1 
1 1 1 1 1 1 1 1 1 
1 1 1 1 1 1 1 1 1 
1 1 1 1 1 1 1 1 1 
1 1 1 1 1 1 1 1 1 
1 1 1 1 1 1 1 1 1 
1 1 1 1 1 1 1 1 1 
1 1 1 1 1 1 1 1 1 
1 1 1 1 1 1 1 1 1 
1 1 1 1 1 1 1 1 1 
1 1 1 1 1 1 1 1 1 
1 1 1 1 1 1 1 1 1 
1 1 1 1 1 1 1 1 1 
1 1 1 1 1 1 1 1 1 
1 1 1 1 1 1 1 1 1 
1 1 1 1 1 1 1 1 1 
1 1 1 1 1 1 1 1 1 
1 1 1 1 1 1 1 1 1 
1 1 1 1 1 1 1 1 1 
1 1 1 1 1 1 1 1 1 
1 1 1 1 1 1 1 1 1 
1 1 1 1 1 1 1 1 1 
1 1 1 1 1 1 1 1 1 
1 1 1 1 1 1 1 1 1 
1 1 1 1 1 1 1 1 1 
1 1 1 1 1 1 1 1 1 
1 1 1 1 1 1 1 1 1 
1 1 1 1 1 1 1 1 1 
1 1 1 1 1 1 1 1 1 
1 1 1 1 1 1 1 1 1 
1 1 1 1 1 1 1 1 1 
1 1 1 1 1 1 1 1 1 
1 1 1 1 1 1 1 1 1 
1 1 1 1 1 1 1 1 1 
1 1 1 1 1 1 1 1 1 
1 1 1 1 1 1 1 1 1 
1 1 1 1 1 1 1 1 1 
1 1 1 1 1 1 1 1 1 
1 1 1 1 1 1 1 1 1 
1 1 1 1 1 1 1 1 1 
1 1 1 1 1 1 1 1 1 
1 1 1 1 1 1 1 1 1 
1 1 1 1 1 1 1 1 1 
1 1 1 1 1 1 1 1 1 
1 1 1 1 1 1 1 1 1 
1 1 1 1 1 1 1 1 1 
1 1 1 1 1 1 1 1 1 
1 1 1 1 1 1 1 1 1 
1 1 1 1 1 1 1 1 1 
1 1 1 1 1 1 1 1 1 
1 1 1 1 1 1 1 1 1 
1 1 1 1 1 1 1 1 1 
1 1 1 1 1 1 1 1 1 
1 1 1 1 1 1 1 1 1 
1 1 1 1 1 1 1 1 1 
1 1 1 1 1 1 1 1 1 
1 1 1 1 1 1 1 1 1 
1 1 1 1 1 1 1 1 1 
1 1 1 1 1 1 1 1 1 
1 1 1 1 1 1 1 1 1 
1 1 1 1 1 1 1 1 1 
1 1 1 1 1 1 1 1 1 
1 1 1 1 1 1 1 1 1 
1 1 1 1 1 1 1 1 1 
1 1 1 1 1 1 1 1 1 
1 1 1 1 1 1 1 1 1 
1 1 1 1 1 1 1 1 1 
1 1 1 1 1 1 1 1 1 
1 1 1 1 1 1 1 1 1 
1 1 1 1 1 1 1 1 1 
1 1 1 1 1 1 1 1 1 
1 1 1 1 1 1 1 1 1 
1 1 1 1 1 1 1 1 1 
1 1 1 1 1 1 1 1 1 
1 1 1 1 1 1 1 1 1 
1 1 1 1 1 1 1 1 1 
1 1 1 1 1 1 1 1 1 
1 1 1 1 1 1 1 1 1 
1 1 1 1 1 1 1 1 1 
1 1 1 1 1 1 1 1 1 
1 1 1 1 1 1 1 1 1 
1 1 1 1 1 1 1 1 1 
1 1 1 1 1 1 1 1 1 
1 1 1 1 1 1 1 1 1 
1 1 1 1 1 1 1 1 1 
1 1 1 1 1 1 1 1 1 
1 1 1 1 1 1 1 1 1 
1 1 1 1 1 1 1 1 1 
1 1 1 1 1 1 1 1 1 
1 1 1 1 1 1 1 1 1 
1 1 1 1 1 1 1 1 1 
1 1 1 1 1 1 1 1 1 
1 1 1 1 1 1 1 1 1 
1 1 1 1 1 1 1 1 1 
1 1 1 1 1 1 1 1 1 
1 1 1 1 1 1 1 1 1 
1 1 1 1 1 1 1 1 1 
1 1 1 1 1 1 1 1 1 
1 1 1 1 1 1 1 1 1 
1 1 1 1 1 1 1 1 1 
1 1 1 1 1 1 1 1 1 
1 1 1 1 1 1 1 1 1 
1 1 1 1 1 1 1 1 1 
1 1 1 1 1 1 1 1 1 
1 1 1 1 1 1 1 1 1 
1 1 1 1 1 1 1 1 1 
1 1 1 1 1 1 1 1 1 
1 1 1 1 1 1 1 1 1 
1 1 1 1 1 1 1 1 1 
1 1 1 1 1 1 1 1 1 
1 1 1 1 1 1 1 1 1 
1 1 1 1 1 1 1 1 1 
1 1 1 1 1 1 1 1 1 
1 1 1 1 1 1 1 1 1 
1 1 1 1 1 1 1 1 1 
1 1 1 1 1 1 1 1 1 
1 1 1 1 1 1 1 1 1 
1 1 1 1 1 1 1 1 1 
1 1 1 1 1 1 1 1 1 
1 1 1 1 1 1 1 1 1 
1 1 1 1 1 1 1 1 1 
1 1 1 1 1 1 1 1 1 
1 1 1 1 1 1 1 1 1 
1 1 1 1 1 1 1 1 1 
1 1 1 1 1 1 1 1 1 
1 1 1 1 1 1 1 1 1 
1 1 1 1 1 1 1 1 1 
1 1 1 1 1 1 1 1 1 
1 1 1 1 1 1 1 1 1 
1 1 1 1 1 1 1 1 1 
1 1 1 1 1 1 1 1 1 
1 1 1 1 1 1 1 1 1 
1 1 1 1 1 1 1 1 1 
1 1 1 1 1 1 1 1 1 
1 1 1 1 1 1 1 1 1 
1 1 1 1 1 1 1 1 1 
1 1 1 1 1 1 1 1 1 
1 1 1 1 1 1 1 1 1 
1 1 1 1 1 1 1 1 1 
1 1 1 1 1 1 1 1 1 
1 1 1 1 1 1 1 1 1 
1 1 1 1 1 1 1 1 1 
1 1 1 1 1 1 1 1 1 
1 1 1 1 1 1 1 1 1 
1 1 1 1 1 1 1 1 1 
1 1 1 1 1 1 1 1 1 
1 1 1 1 1 1 1 1 1 
1 1 1 1 1 1 1 1 1 
1 1 1 1 1 1 1 1 1 
1 1 1 1 1 1 1 1 1 
1 1 1 1 1 1 1 1 1 
1 1 1 1 1 1 1 1 1 
1 1 1 1 1 1 1 1 1 
1 1 1 1 1 1 1 1 1 
1 1 1 1 1 1 1 1 1 
1 1 1 1 1 1 1 1 1 
1 1 1 1 1 1 1 1 1 
1 1 1 1 1 1 1 1 1 
1 1 1 1 1 1 1 1 1 
1 1 1 1 1 1 1 1 1 
1 1 1 1 1 1 1 1 1 
1 1 1 1 1 1 1 1 1 
1 1 1 1 1 1 1 1 1 
1 1 1 1 1 1 1 1 1 
1 1 1 1 1 1 1 1 1 
1 1 1 1 1 1 1 1 1 
1 1 1 1 1 1 1 1 1 
1 1 1 1 1 1 1 1 1 
1 1 1 1 1 1 1 1 1 
1 1 1 1 1 1 1 1 1 
1 1 1 1 1 1 1 1 1 
1 1 1 1 1 1 1 1 1 
1 1 1 1 1 1 1 1 1 
1 1 1 1 1 1 1 1 1 
1 1 1 1 1 1 1 1 1 
1 1 1 1 1 1 1 1 1 
1 1 1 1 1 1 1 1 1 
1 1 1 1 1 1 1 1 1 
1 1 1 1 1 1 1 1 1 
1 1 1 1 1 1 1 1 1 
1 1 1 1 1 1 1 1 1 
1 1 1 1 1 1 1 1 1 
1 1 1 1 1 1 1 1 1 
1 1 1 1 1 1 1 1 1 
1 1 1 1 1 1 1 1 1 
1 1 1 1 1 1 1 1 1 
1 1 1 1 1 1 1 1 1 
1 1 1 1 1 1 1 1 1 
1 1 1 1 1 1 1 1 1 
1 1 1 1 1 1 1 1 1 
1 1 1 1 1 1 1 1 1 
1 1 1 1 1 1 1 1 1 
1 1 1 1 1 1 1 1 1 
1 1 1 1 1 1 1 1 1 
1 1 1 1 1 1 1 1 1 
1 1 1 1 1 1 1 1 1 
1 1 1 1 1 1 1 1 1 
1 1 1 1 1 1 1 1 1 
1 1 1 1 1 1 1 1 1 
1 1 1 1 1 1 1 1 1 
1 1 1 1 1 1 1 1 1 
1 1 1 1 1 1 1 1 1 
1 1 1 1 1 1 1 1 1 
1 1 1 1 1 1 1 1 1 
1 1 1 1 1 1 1 1 1 
1 1 1 1 1 1 1 1 1 
1 1 1 1 1 1 1 1 1 
1 1 1 1 1 1 1 1 1 
1 1 1 1 1 1 1 1 1 
1 1 1 1 1 1 1 1 1 
1 1 1 1 1 1 1 1 1 
1 1 1 1 1 1 1 1 1 
1 1 1 1 1 1 1 1 1 
1 1 1 1 1 1 1 1 1 
1 1 1 1 1 1 1 1 1 
1 1 1 1 1 1 1 1 1 
1 1 1 1 1 1 1 1 1 
1 1 1 1 1 1 1 1 1 
1 1 1 1 1 1 1 1 1 
1 1 1 1 1 1 1 1 1 
1 1 1 1 1 1 1 1 1 
1 1 1 1 1 1 1 1 1 
1 1 1 1 1 1 1 1 1 
1 1 1 1 1 1 1 1 1 
1 1 1 1 1 1 1 1 1 
1 1 1 1 1 1 1 1 1 
1 1 1 1 1 1 1 1 1 
1 1 1 1 1 1 1 1 1 
1 1 1 1 1 1 1 1 1 
1 1 1 1 1 1 1 1 1 
1 1 1 1 1 1 1 1 1 
1 1 1 1 1 1 1 1 1 
1 1 1 1 1 1 1 1 1 
1 1 1 1 1 1 1 1 1 
1 1 1 1 1 1 1 1 1 
1 1 1 1 1 1 1 1 1 
1 1 1 1 1 1 1 1 1 
1 1 1 1 1 1 1 1 1 
1 1 1 1 1 1 1 1 1 
1 1 1 1 1 1 1 1 1 
1 1 1 1 1 1 1 1 1 
1 1 1 1 1 1 1 1 1 
1 1 1 1 1 1 1 1 1 
1 1 1 1 1 1 1 1 1 
1 1 1 1 1 1 1 1 1 
1 1 1 1 1 1 1 1 1 
1 1 1 1 1 1 1 1 1 
1 1 1 1 1 1 1 1 1 
1 1 1 1 1 1 1 1 1 
1 1 1 1 1 1 1 1 1 
1 1 1 1 1 1 1 1 1 
1 1 1 1 1 1 1 1 1 
1 1 1 1 1 1 1 1 1 
1 1 1 1 1 1 1 1 1 
1 1 1 1 1 1 1 1 1 
1 1 1 1 1 1 1 1 1 
1 1 1 1 1 1 1 1 1 
1 1 1 1 1 1 1 1 1 
1 1 1 1 1 1 1 1 1 
1 1 1 1 1 1 1 1 1 
1 1 1 1 1 1 1 1 1 
1 1 1 1 1 1 1 1 1 
1 1 1 1 1 1 1 1 1 
1 1 1 1 1 1 1 1 1 
1 1 1 1 1 1 1 1 1 
1 1 1 1 1 1 1 1 1 
1 1 1 1 1 1 1 1 1 
1 1 1 1 1 1 1 1 1 
1 1 1 1 1 1 1 1 1 
1 1 1 1 1 1 1 1 1 
1 1 1 1 1 1 1 1 1 
1 1 1 1 1 1 1 1 1 
1 1 1 1 1 1 1 1 1 
1 1 1 1 1 1 1 1 1 
1 1 1 1 1 1 1 1 1 
1 1 1 1 1 1 1 1 1 
1 1 1 1 1 1 1 1 1 
1 1 1 1 1 1 1 1 1 
1 1 1 1 1 1 1 1 1 
1 1 1 1 1 1 1 1 1 
1 1 1 1 1 1 1 1 1 
1 1 1 1 1 1 1 1 1 
1 1 1 1 1 1 1 1 1 
1 1 1 1 1 1 1 1 1 
1 1 1 1 1 1 1 1 1 
1 1 1 1 1 1 1 1 1 
1 1 1 1 1 1 1 1 1 
1 1 1 1 1 1 1 1 1 
1 1 1 1 1 1 1 1 1 
1 1 1 1 1 1 1 1 1 
1 1 1 1 1 1 1 1 1 
1 1 1 1 1 1 1 1 1 
1 1 1 1 1 1 1 1 1 
1 1 1 1 1 1 1 1 1 
1 1 1 1 1 1 1 1 1 
1 1 1 1 1 1 1 1 1 
1 1 1 1 1 1 1 1 1 
1 1 1 1 1 1 1 1 1 
1 1 1 1 1 1 1 1 1 
1 1 1 1 1 1 1 1 1 
1 1 1 1 1 1 1 1 1 
1 1 1 1 1 1 1 1 1 
1 1 1 1 1 1 1 1 1 
1 1 1 1 1 1 1 1 1 
1 1 1 1 1 1 1 1 1 
1 1 1 1 1 1 1 1 1 
1 1 1 1 1 1 1 1 1 
1 1 1 1 1 1 1 1 1 
1 1 1 1 1 1 1 1 1 
1 1 1 1 1 1 1 1 1 
1 1 1 1 1 1 1 1 1 
1 1 1 1 1 1 1 1 1 
1 1 1 1 1 1 1 1 1 
1 1 1 1 1 1 1 1 1 
1 1 1 1 1 1 1 1 1 
1 1 1 1 1 1 1 1 1 
1 1 1 1 1 1 1 1 1 
1 1 1 1 1 1 1 1 1 
1 1 1 1 1 1 1 1 1 
1 1 1 1 1 1 1 1 1 
1 1 1 1 1 1 1 1 1 
1 1 1 1 1 1 1 1 1 
1 1 1 1 1 1 1 1 1 
1 1 1 1 1 1 1 1 1 
1 1 1 1 1 1 1 1 1 
1 1 1 1 1 1 1 1 1 
1 1 1 1 1 1 1 1 1 
1 1 1 1 1 1 1 1 1 
1 1 1 1 1 1 1 1 1 
1 1 1 1 1 1 1 1 1 
1 1 1 1 1 1 1 1 1 
1 1 1 1 1 1 1 1 1 
1 1 1 1 1 1 1 1 1 
1 1 1 1 1 1 1 1 1 
1 1 1 1 1 1 1 1 1 
1 1 1 1 1 1 1 1 1 
1 1 1 1 1 1 1 1 1 
1 1 1 1 1 1 1 1 1 
1 1 1 1 1 1 1 1 1 
1 1 1 1 1 1 1 1 1 
1 1 1 1 1 1 1 1 1 
1 1 1 1 1 1 1 1 1 
1 1 1 1 1 1 1 1 1 
1 1 1 1 1 1 1 1 1 
1 1 1 1 1 1 1 1 1 
1 1 1 1 1 1 1 1 1 
1 1 1 1 1 1 1 1 1 
1 1 1 1 1 1 1 1 1 
1 1 1 1 1 1 1 1 1 
1 1 1 1 1 1 1 1 1 
1 1 1 1 1 1 1 1 1 
1 1 1 1 1 1 1 1 1 
1 1 1 1 1 1 1 1 1 
1 1 1 1 1 1 1 1 1 
1 1 1 1 1 1 1 1 1 
1 1 1 1 1 1 1 1 1 
1 1 1 1 1 1 1 1 1 
1 1 1 1 1 1 1 1 1 
1 1 1 1 1 1 1 1 1 
1 1 1 1 1 1 1 1 1 
1 1 1 1 1 1 1 1 1 
1 1 1 1 1 1 1 1 1 
1 1 1 1 1 1 1 1 1 
1 1 1 1 1 1 1 1 1 
1 1 1 1 1 1 1 1 1 
1 1 1 1 1 1 1 1 1 
1 1 1 1 1 1 1 1 1 
1 1 1 1 1 1 1 1 1 
1 1 1 1 1 1 1 1 1 
1 1 1 1 1 1 1 1 1 
1 1 1 1 1 1 1 1 1 
1 1 1 1 1 1 1 1 1 
1 1 1 1 1 1 1 1 1 
1 1 1 1 1 1 1 1 1 
1 1 1 1 1 1 1 1 1 
1 1 1 1 1 1 1 1 1 
1 1 1 1 1 1 1 1 1 
1 1 1 1 1 1 1 1 1 
1 1 1 1 1 1 1 1 1 
1 1 1 1 1 1 1 1 1 
1 1 1 1 1 1 1 1 1 
1 1 1 1 1 1 1 1 1 
1 1 1 1 1 1 1 1 1 
1 1 1 1 1 1 1 1 1 
1 1 1 1 1 1 1 1 1 
1 1 1 1 1 1 1 1 1 
1 1 1 1 1 1 1 1 1 
1 1 1 1 1 1 1 1 1 
1 1 1 1 1 1 1 1 1 
1 1 1 1 1 1 1 1 1 
1 1 1 1 1 1 1 1 1 
1 1 1 1 1 1 1 1 1 
1 1 1 1 1 1 1 1 1 
1 1 1 1 1 1 1 1 1 
1 1 1 1 1 1 1 1 1 
1 1 1 1 1 1 1 1 1 
1 1 1 1 1 1 1 1 1 
1 1 1 1 1 1 1 1 1 
1 1 1 1 1 1 1 1 1 
1 1 1 1 1 1 1 1 1 
1 1 1 1 1 1 1 1 1 
1 1 1 1 1 1 1 1 1 
1 1 1 1 1 1 1 1 1 
1 1 1 1 1 1 1 1 1 
1 1 1 1 1 1 1 1 1 
1 1 1 1 1 1 1 1 1 
1 1 1 1 1 1 1 1 1 
1 1 1 1 1 1 1 1 1 
1 1 1 1 1 1 1 1 1 
1 1 1 1 1 1 1 1 1 
1 1 1 1 1 1 1 1 1 
1 1 1 1 1 1 1 1 1 
1 1 1 1 1 1 1 
NORMALS normals float
-0.00980298 -0.00980298 -0.999904 -0.00693225 -0.70709 -0.70709 -0.999904 -0.00980298 -0.00980298 
0 -0.00980345 -0.999952 0 -0.707107 -0.707107 0 -0.00980345 -0.999952 
0 -0.707107 -0.707107 0 -0.00980345 -0.999952 0 -0.707107 -0.707107 
0 -0.00980345 -0.999952 0 -0.707107 -0.707107 0.00980298 -0.00980298 -0.999904 
0.00980298 -0.999904 -0.00980298 0.999904 -0.00980298 -0.00980298 -0.00980298 0.00980298 -0.999904 
-0.999904 0.00980298 -0.00980298 0 0.00980345 -0.999952 0 0 -1 
0 0 -1 0 0 -1 0.00980345 0 -0.999952 
0.579237 -0.573558 -0.579237 -0.00980298 0.999904 -0.00980298 -0.703598 0.710564 -0.00696632 
-0.710564 0.703598 -0.00696632 -0.00980345 0 -0.999952 0 0 -1 
0 0 -1 0 0 -1 0.573558 -0.579237 -0.579237 
0 -0.00980345 -0.999952 0.00980298 -0.00980298 -0.999904 0.00693225 -0.70709 -0.70709 
0.999904 -0.00980298 -0.00980298 -0.00980298 0.00980298 -0.999904 -0.999904 0.00980298 -0.00980298 
0 0.00980345 -0.999952 0 0 -1 0 0 -1 
0 0 -1 0.00980345 0 -0.999952 0.999952 0 -0.00980345 
-0.00980298 0.999904 -0.00980298 -0.703598 0.710564 -0.00696632 -0.710564 0.703598 -0.00696632 
-0.00980345 0 -0.999952 0 0 -1 0 0 -1 
0.00980345 0 -0.999952 0.999952 0 -0.00980345 -0.00980298 0.00980298 -0.999904 
-0.999904 0.00980298 -0.00980298 0 0.00980345 -0.999952 0 0 -1 
0.00980345 0 -0.999952 0.579237 -0.573558 -0.579237 -0.00980298 0.999904 -0.00980298 
-0.573558 0.579237 -0.579237 -0.579237 0.573558 -0.579237 -0.00980345 0 -0.999952 
0 0 -1 0.573558 -0.579237 -0.579237 0 -0.00980345 -0.999952 
0.00980298 -0.00980298 -0.999904 0.00980298 -0.999904 -0.00980298 0.999904 -0.00980298 -0.00980298 
-0.00980345 0 -0.999952 -0.707107 0 -0.707107 0 0 -1 
0 0 -1 0.00980345 0 -0.999952 0.999952 0 -0.00980345 
-0.00980345 0 -0.999952 -0.999952 0 -0.00980345 0 0 -1 
0 0 -1 0.00980345 0 -0.999952 0.999952 0 -0.00980345 
-0.00980345 0 -0.999952 -0.999952 0 -0.00980345 0 0 -1 
0 0 -1 0.00980345 0 -0.999952 0.999952 0 -0.00980345 
-0.00980345 0 -0.999952 -0.999952 0 -0.00980345 0 0 -1 
0 0 -1 0.00980345 0 -0.999952 0.999952 0 -0.00980345 
-0.00980298 0.00980298 -0.999904 -0.999904 0.00980298 -0.00980298 0 0.00980345 -0.999952 
0 0 -1 0.00980345 0 -0.999952 0.999952 0 -0.00980345 
-0.00980298 0.999904 -0.00980298 -0.703598 0.710564 -0.00696632 -0.710564 0.703598 -0.00696632 
-0.00980345 0 -0.999952 0.00980345 0 -0.999952 0.999952 0 -0.00980345 
-0.00980345 0 -0.999952 -0.999952 0 -0.00980345 0.00980345 0 -0.999952 
0.999952 0 -0.00980345 -0.00980345 0 -0.999952 -0.999952 0 -0.00980345 
0.00980345 0 -0.999952 0.999952 0 -0.00980345 -0.00980345 0 -0.999952 
-0.999952 0 -0.00980345 0.00980345 0 -0.999952 0.999952 0 -0.00980345 
-0.00980345 0 -0.999952 -0.999952 0 -0.00980345 0.00980298 0.00980298 -0.999904 
0.999904 0.00980298 -0.00980298 0 0.00980345 -0.999952 -0.999902 0.00990002 -0.00990002 
0.573558 0.579237 -0.579237 0.57735 0.57735 -0.57735 0 0.999952 -0.00980345 
-0.00980345 0 -0.999952 -0.00696632 -0.703598 -0.710564 -0.707107 0 -0.707107 
0 -0.707107 -0.707107 0 -0.707107 -0.707107 0 -0.707107 -0.707107 
0 -0.707107 -0.707107 0 -0.707107 -0.707107 0 -0.707107 -0.707107 
0 -0.707107 -0.707107 0 -0.707107 -0.707107 0.00693225 -0.70709 -0.70709 
0.00693225 -0.70709 -0.70709 0.57735 -0.57735 -0.57735 -0.710564 0.703598 -0.00696632 
-0.710581 0.703615 0 0.579237 -0.579237 -0.573558 0.579237 -0.579237 -0.573558 
-0.999952 0.00980345 0 0.573558 -0.579237 -0.579237 0.573558 -0.579237 -0.579237 
0.00693225 -0.70709 -0.70709 0.00693225 -0.70709 -0.70709 0.70709 -0.00693225 -0.70709 
-0.00980345 0.999952 0 -0.703615 0.710581 0 -0.710581 0.703615 0 
0.710581 0 -0.703615 -0.999952 0.00980345 0 0.710581 0 -0.703615 
-0.00980345 0.999952 0 -0.703615 0.710581 0 -0.710581 0.703615 0 
0.581142 -0.575445 -0.575445 -0.999952 0.00980345 0 0.57735 -0.57735 -0.57735 
0.57735 -0.57735 -0.57735 0.57735 -0.57735 -0.57735 -0.579237 0.579237 -0.573558 
-0.579237 0.573558 -0.579237 -0.579237 0.573558 -0.579237 0.579237 -0.579237 -0.573558 
0.710564 -0.00696632 -0.703598 -0.70709 0.00693225 -0.70709 -0.70709 0.00693225 -0.70709 
0.710581 0 -0.703615 -0.70709 0.70709 -0.00693225 -0.710581 0.703615 0 
0.710581 0 -0.703615 -1 0 0 0.710581 0 -0.703615 
-1 0 0 0.710581 0 -0.703615 -0.999952 0.00980345 0 
0.710581 0 -0.703615 -0.00980345 0.999952 0 -0.703615 0.710581 0 
-0.710581 0.703615 0 0.710581 0 -0.703615 -1 0 0 
0.710581 0 -0.703615 -1 0 0 0.710581 0 -0.703615 
-1 0 0 0.710581 0 -0.703615 -1 0 0 
0.710581 0 -0.703615 -0.999952 0.00980345 0 0.57735 0.57735 -0.57735 
0.70709 0.00693225 -0.70709 -0.00980345 0.999952 0 0.00980298 0.999904 -0.00980298 
-0.00980298 -0.00980298 -0.999904 -0.00693225 -0.70709 -0.70709 -0.999904 -0.00980298 -0.00980298 
0 -0.00980345 -0.999952 0 -0.707107 -0.707107 0 -0.00980345 -0.999952 
0 -0.707107 -0.707107 0 -0.00980345 -0.999952 0 -0.707107 -0.707107 
0 -0.00980345 -0.999952 0 -0.707107 -0.707107 0 -0.00980345 -0.999952 
0 -0.707107 -0.707107 0 -0.00980345 -0.999952 0 -0.999952 -0.00980345 
0 -0.00980345 -0.999952 0 -0.999952 -0.00980345 0 -0.00980345 -0.999952 
0 -0.999952 -0.00980345 0.00980298 -0.00980298 -0.999904 0.00980298 -0.999904 -0.00980298 
0.999904 -0.00980298 -0.00980298 -0.00980298 0.00980298 -0.999904 -0.999904 0.00980298 -0.00980298 
0 0.00980345 -0.999952 0 0 -1 0 0 -1 
0 0 -1 0 0 -1 0 0 -1 
0 0 -1 0 0 -1 0.00980345 0 -0.999952 
0.579237 -0.573558 -0.579237 -0.00980298 0.999904 -0.00980298 -0.703598 0.710564 -0.00696632 
-0.710564 0.703598 -0.00696632 -0.00980345 0 -0.999952 0 0 -1 
0 0 -1 0 0 -1 0 0 -1 
0 0 -1 0 0 -1 0 0 -1 
0.573558 -0.579237 -0.579237 0 -0.00980345 -0.999952 0 -0.00980345 -0.999952 
0 -0.707107 -0.707107 0 -0.00980345 -0.999952 0 -0.999952 -0.00980345 
0.00980298 -0.00980298 -0.999904 0.00980298 -0.999904 -0.00980298 0.999904 -0.00980298 -0.00980298 
-0.00980298 0.00980298 -0.999904 -0.999904 0.00980298 -0.00980298 0 0.00980345 -0.999952 
0 0.00980345 -0.999952 0 0.00980345 -0.999952 0 0 -1 
0 0 -1 0 0 -1 0 0 -1 
0 0 -1 0 0 -1 0 0 -1 
0.00980345 0 -0.999952 0.579237 -0.573558 -0.579237 -0.00980298 0.999904 -0.00980298 
0 0.999952 -0.00980345 0 0.999952 -0.00980345 -0.703598 0.710564 -0.00696632 
-0.710564 0.703598 -0.00696632 -0.00980345 0 -0.999952 0 0 -1 
0 0 -1 0 -0.703615 -0.710581 0 -0.703615 -0.710581 
0 -0.703615 -0.710581 0 -0.703615 -0.710581 0 -0.703615 -0.710581 
0.573558 -0.579237 -0.579237 0 -0.707107 -0.707107 0.00980298 -0.00980298 -0.999904 
0.00980298 -0.999904 -0.00980298 0.999904 -0.00980298 -0.00980298 -0.00980298 0.00980298 -0.999904 
-0.999904 0.00980298 -0.00980298 0 0.00980345 -0.999952 -0.703598 0.00696632 -0.710564 
0.579237 -0.573558 -0.579237 0.579237 -0.573558 -0.579237 -0.00980298 0.999904 -0.00980298 
0 0.999952 -0.00980345 0 0.999952 -0.00980345 -0.575445 0.581142 -0.575445 
-0.581142 0.575445 -0.575445 0.573558 -0.579237 -0.579237 0.573558 -0.579237 -0.579237 
0 -0.707107 -0.707107 0 -0.707107 -0.707107 0 -0.00980345 -0.999952 
0 -0.999952 -0.00980345 0.00980298 -0.00980298 -0.999904 0.00980298 -0.999904 -0.00980298 
0.999904 -0.00980298 -0.00980298 -0.999952 0.00980345 0 0.703615 0 -0.710581 
0.00980345 0 -0.999952 0.999952 0 -0.00980345 -0.00980345 0.999952 0 
-0.575445 0.581142 -0.575445 -0.581142 0.575445 -0.575445 0.703615 0 -0.710581 
0.00980345 0 -0.999952 0.999952 0 -0.00980345 -0.999952 0.00980345 0 
0.703615 0 -0.710581 0.00980345 0 -0.999952 0.999952 0 -0.00980345 
-0.00980345 0.999952 0 -0.575445 0.581142 -0.575445 -0.581142 0.575445 -0.575445 
0.575445 -0.575445 -0.581142 0.00980345 0 -0.999952 0.999952 0 -0.00980345 
-0.710581 0 -0.703615 0.579237 -0.573558 -0.579237 0.579237 -0.573558 -0.579237 
-0.579237 0.573558 -0.579237 -0.999952 0 -0.00980345 0.703598 -0.00696632 -0.710564 
0.573558 -0.579237 -0.579237 0.00980298 -0.00980298 -0.999904 0.00980298 -0.999904 -0.00980298 
0.999904 -0.00980298 -0.00980298 -0.70709 0.00693225 -0.70709 -0.999904 0.00980298 -0.00980298 
0.703615 0 -0.710581 0.00980345 0 -0.999952 0.999952 0 -0.00980345 
-0.00980298 0.999904 -0.00980298 -0.575445 0.581142 -0.575445 -0.581142 0.575445 -0.575445 
0.703615 0 -0.710581 0.00980345 0 -0.999952 0.999952 0 -0.00980345 
-0.710581 0 -0.703615 0.703615 0 -0.710581 0.00980345 0 -0.999952 
0.999952 0 -0.00980345 -1 0 0 0.703615 0 -0.710581 
0.00980345 0 -0.999952 0.999952 0 -0.00980345 -0.999952 0.00980345 0 
0.703615 0 -0.710581 0.00980345 0 -0.999952 0.999952 0 -0.00980345 
-0.00980345 0.999952 0 -0.575445 0.581142 -0.575445 -0.581142 0.575445 -0.575445 
0.703615 0 -0.710581 0.00980345 0 -0.999952 0.999952 0 -0.00980345 
-0.710581 0 -0.703615 0.703615 0 -0.710581 0.00980345 0 -0.999952 
0.579237 -0.573558 -0.579237 -0.710581 0 -0.703615 0.703615 0 -0.710581 
0 0 -1 0.573558 -0.579237 -0.579237 0 -0.00980345 -0.999952 
0.00980298 -0.00980298 -0.999904 0.00693225 -0.70709 -0.70709 0.999904 -0.00980298 -0.00980298 
-0.710581 0 -0.703615 0.703615 0 -0.710581 0 0 -1 
0 0 -1 0.00980345 0 -0.999952 0.999952 0 -0.00980345 
-1 0 0 0.703615 0 -0.710581 0 0 -1 
0 0 -1 0.00980345 0 -0.999952 0.999952 0 -0.00980345 
-0.999952 0.00980345 0 0.703615 0 -0.710581 0 0 -1 
0 0 -1 0.00980345 0 -0.999952 0.999952 0 -0.00980345 
-0.00980345 0.999952 0 -0.575445 0.581142 -0.575445 -0.00980345 0 -0.999952 
-0.579237 0.573558 -0.579237 0 0 -1 0 0 -1 
0.00980345 0 -0.999952 0.999952 0 -0.00980345 -0.00980345 0 -0.999952 
-0.707107 0 -0.707107 0 0 -1 0 0 -1 
0.00980345 0 -0.999952 0.999952 0 -0.00980345 -0.00980345 0 -0.999952 
-0.707107 0 -0.707107 0 0 -1 0 0 -1 
0.00980298 0.00980298 -0.999904 0.999904 0.00980298 -0.00980298 -0.00980345 0 -0.999952 
-0.707107 0 -0.707107 0 0 -1 0.00980298 0.00980298 -0.999904 
0.70709 0.70709 -0.00693225 0.70709 0.70709 -0.00693225 -0.00980345 0 -0.999952 
-0.707107 0 -0.707107 0.00980298 0.00980298 -0.999904 0.70709 0.70709 -0.00693225 
0.70709 0.70709 -0.00693225 0 0.00980345 -0.999952 -0.703598 0.00696632 -0.710564 
0.573558 0.579237 -0.579237 0.57735 0.57735 -0.57735 0 0.999952 -0.00980345 
-0.00980345 0 -0.999952 -0.00696632 -0.703598 -0.710564 -0.707107 0 -0.707107 
0 -0.707107 -0.707107 0 -0.707107 -0.707107 0 -0.707107 -0.707107 
0 -0.707107 -0.707107 0 -0.707107 -0.707107 0 -0.707107 -0.707107 
0 -0.707107 -0.707107 0 -0.707107 -0.707107 0 -0.707107 -0.707107 
0 -0.707107 -0.707107 0.00693225 -0.70709 -0.70709 0.00693225 -0.70709 -0.70709 
0.70709 -0.70709 -0.00693225 -0.710564 0.703598 -0.00696632 -0.710581 0.703615 0 
0.703615 -0.710581 0 0 -1 0 0 -1 0 
0.00980345 -0.999952 0 0.579237 -0.579237 -0.573558 -0.999952 0.00980345 0 
0.573558 -0.579237 -0.579237 0.573558 -0.579237 -0.579237 0.00693225 -0.70709 -0.70709 
0.00693225 -0.70709 -0.70709 0.70709 -0.70709 -0.00693225 -0.00980345 0.999952 0 
-0.703615 0.710581 0 -0.710581 0.703615 0 0.703615 -0.710581 0 
0.00980345 -0.999952 0 0.579237 -0.579237 -0.573558 -0.999952 0.00980345 0 
0.57735 -0.57735 -0.57735 0.57735 -0.57735 -0.57735 0.57735 -0.57735 -0.57735 
-0.00980345 0.999952 0 0 1 0 0 1 0 
-0.703615 0.710581 0 -0.710581 0.703615 0 0.579237 -0.579237 -0.573558 
0.579237 -0.579237 -0.573558 -0.999952 0.00980345 0 0.573558 -0.579237 -0.579237 