# vtk DataFile Version 3.0
vtk output
ASCII
DATASET POLYDATA
POINTS 2908 float
77 68 13.0095 77 67.0095 14 76.0095 68 14 
78 68 13.0095 78 67.0095 14 79 68 13.0095 
79 67.0095 14 80 68 13.0095 80 67.0095 14 
81 68 13.0095 81 67.0095 14 82 68 13.0095 
82 67.0095 14 83 68 13.0095 83 67.0095 14 
84 68 13.0095 84 67.0095 14 84.9905 68 14 
76 69 13.0095 76 68.0095 14 75.0095 69 14 
77 69 13.0095 78 69 13.0095 79 69 13.0095 
80 69 13.0095 81 69 13.0095 82 69 13.0095 
83 69 13.0095 84 69 13.0095 84.9905 69 14 
75 70 13.0095 75 69.0095 14 74.0095 70 14 
76 70 13.0095 77 70 13.0095 78 70 13.0095 
79 70 13.0095 80 70 13.0095 81 70 13.0095 
82 70 13.0095 83 70 13.0095 84 70 13.0095 
84.9905 70 14 74 71 13.0095 74 70.0095 14 
73.0095 71 14 75 71 13.0095 76 71 13.0095 
77 71 13.0095 78 71 13.0095 79 71 13.0095 
80 71 13.0095 81 71 13.0095 82 71 13.0095 
83 71 13.0095 84 71 13.0095 84.9905 71 14 
73 72 13.0095 73 71.0095 14 72.0095 72 14 
74 72 13.0095 75 72 13.0095 76 72 13.0095 
77 72 13.0095 78 72 13.0095 79 72 13.0095 
80 72 13.0095 81 72 13.0095 82 72 13.0095 
83 72 13.0095 84 72 13.0095 84.9905 72 14 
73 73 13.0095 72.0095 73 14 74 73 13.0095 
75 73 13.0095 76 73 13.0095 77 73 13.0095 
78 73 13.0095 79 73 13.0095 80 73 13.0095 
81 73 13.0095 82 73 13.0095 83 73 13.0095 
84 73 13.0095 84.9905 73 14 73 74 13.0095 
72.0095 74 14 74 74 13.0095 75 74 13.0095 
76 74 13.0095 77 74 13.0095 78 74 13.0095 
79 74 13.0095 80 74 13.0095 81 74 13.0095 
82 74 13.0095 83 74 13.0095 84 74 13.0095 
84.9905 74 14 73 75 13.0095 72.0095 75 14 
74 75 13.0095 75 75 13.0095 76 75 13.0095 
77 75 13.0095 78 75 13.0095 79 75 13.0095 
80 75 13.0095 81 75 13.0095 82 75 13.0095 
83 75 13.0095 84 75 13.0095 84.9905 75 14 
73 76 13.0095 72.0095 76 14 74 76 13.0095 
75 76 13.0095 76 76 13.0095 77 76 13.0095 
78 76 13.0095 79 76 13.0095 80 76 13.0095 
81 76 13.0095 82 76 13.0095 83 76 13.0095 
84 76 13.0095 84.9905 76 14 73 77 13.0095 
72.0095 77 14 74 77 13.0095 75 77 13.0095 
76 77 13.0095 77 77 13.0095 78 77 13.0095 
79 77 13.0095 80 77 13.0095 81 77 13.0095 
82 77 13.0095 83 77 13.0095 84 77 13.0095 
84.9905 77 14 73 78 13.0095 72.0095 78 14 
74 78 13.0095 75 78 13.0095 76 78 13.0095 
77 78 13.0095 78 78 13.0095 79 78 13.0095 
80 78 13.0095 81 78 13.0095 82 78 13.0095 
83 78 13.0095 84 78 13.0095 84.9905 78 14 
73 79 13.0095 72.0095 79 14 74 79 13.0095 
75 79 13.0095 76 79 13.0095 77 79 13.0095 
78 79 13.0095 79 79 13.0095 80 79 13.0095 
81 79 13.0095 82 79 13.0095 83 79 13.0095 
83.9905 79 14 84 78.9905 14 73 80 13.0095 
72.0095 80 14 74 80 13.0095 75 80 13.0095 
76 80 13.0095 77 80 13.0095 78 80 13.0095 
79 80 13.0095 80 80 13.0095 81 80 13.0095 
82 80 13.0095 82.9905 80 14 83 79.9905 14 
73 81 13.0095 72.0095 81 14 74 81 13.0095 
75 81 13.0095 76 81 13.0095 77 81 13.0095 
78 81 13.0095 79 81 13.0095 80 81 13.0095 
81 81 13.0095 81.9905 81 14 82 80.9905 14 
73 82 13.0095 72.0095 82 14 74 82 13.0095 
75 82 13.0095 76 82 13.0095 77 82 13.0095 
78 82 13.0095 78.9905 82 14 79 81.9905 14 
80 81.9905 14 81 81.9905 14 73 83 13.0095 
72.0095 83 14 74 83 13.0095 75 83 13.0095 
76 83 13.0095 77 83 13.0095 77.9905 83 14 
78 82.9905 14 73 83.9905 14 74 83.9905 14 
75 83.9905 14 76 83.9905 14 77 83.9905 14 
77 67 14.0095 77 66.0095 15 76.0095 67 15 
78 67 14.0095 78 66.0095 15 79 67 14.0095 
79 66.0095 15 80 67 14.0095 80 66.0095 15 
81 67 14.0095 81 66.0095 15 82 67 14.0095 
82 66.0095 15 83 67 14.0095 83 66.0095 15 
83.9905 67 15 76.0095 68 15 84 67.0095 15 
84.9905 68 15 76 68.0095 15 75.0095 69 15 
84.9905 69 15 75 69.0095 15 74.0095 70 15 
84.9905 70 15 74 70.0095 15 73.0095 71 15 
84.9905 71 15 73 71.0095 15 72.0095 72 15 
84.9905 72 15 72.0095 73 15 84.9905 73 15 
72.0095 74 15 84.9905 74 15 72 75 14.0095 
72 74.0095 15 71.0095 75 15 84.9905 75 15 
72 76 14.0095 71.0095 76 15 84.9905 76 15 
72 77 14.0095 71.0095 77 15 84.9905 77 15 
72 78 14.0095 71.0095 78 15 84.9905 78 15 
72 79 14.0095 71.0095 79 15 84 79 14.0095 
84.9905 79 15 72 80 14.0095 71.0095 80 15 
82.9905 80 15 83 79.9905 15 84 79.9905 15 
72 81 14.0095 71.0095 81 15 82 81 14.0095 
82.9905 81 15 72 82 14.0095 71.0095 82 15 
78.9905 82 15 79 81.9905 15 80 81.9905 15 
81 81.9905 15 82 81.9905 15 71 83 14.0095 
71 82.0095 15 70.0095 83 15 72 83 14.0095 
78 83 14.0095 78.9905 83 15 71 83.9905 15 
72 83.9905 15 73 83.9905 15 74 83.9905 15 
75 83.9905 15 76 83.9905 15 77 83.9905 15 
78 83.9905 15 80 65 15.0095 80 64.0095 16 
79.0095 65 16 80.9905 65 16 79 66 15.0095 
79 65.0095 16 78.0095 66 16 80 66 15.0095 
81 65.0095 16 81 66 15.0095 82 66 15.0095 
82 65.0095 16 83 66 15.0095 83 65.0095 16 
84 66 15.0095 84 65.0095 16 84.9905 66 16 
77 67 15.9905 77.0095 67 16 78 66.0095 16 
84 67 15.0095 84.9905 67 16 77 67.0095 16 
76.0095 68 16 85 68 15.0095 85 67.0095 16 
86 68 15.0095 86 67.0095 16 86.9905 68 16 
76 68.0095 16 75.0095 69 16 85 69 15.0095 
86 69 15.0095 86.9905 69 16 75 69.0095 16 
74.0095 70 16 85 70 15.0095 86 70 15.0095 
87 69.0095 16 87 70 15.0095 88 70 15.0095 
88 69.0095 16 88.9905 70 16 74 70.0095 16 
73.0095 71 16 85 71 15.0095 86 71 15.0095 
87 71 15.0095 88 71 15.0095 88.9905 71 16 
73 71.0095 16 72.0095 72 16 85 72 15.0095 
86 72 15.0095 87 72 15.0095 88 72 15.0095 
88.9905 72 16 72.0095 73 16 85 73 15.0095 
86 73 15.0095 87 73 15.0095 88 73 15.0095 
88.9905 73 16 72.0095 74 16 85 74 15.0095 
86 74 15.0095 87 74 15.0095 88 74 15.0095 
88.9905 74 16 72 74.0095 16 71.0095 75 16 
85 75 15.0095 86 75 15.0095 87 75 15.0095 
88 75 15.0095 88.9905 75 16 71 76 15.0095 
71 75.0095 16 70.0095 76 16 85 76 15.0095 
86 76 15.0095 87 76 15.0095 88 76 15.0095 
88.9905 76 16 71 77 15.0095 70.0095 77 16 
85 77 15.0095 86 77 15.0095 87 77 15.0095 
87.9905 77 16 88 76.9905 16 71 78 15.0095 
70.0095 78 16 85 78 15.0095 86 78 15.0095 
86.9905 78 16 87 77.9905 16 71 79 15.0095 
70.0095 79 16 85 79 15.0095 86 79 15.0095 
86.9905 79 16 71 80 15.0095 70.0095 80 16 
83 80 15.0095 84 80 15.0095 85 80 15.0095 
86 80 15.0095 86.9905 80 16 71 81 15.0095 
70.0095 81 16 83 81 15.0095 84 81 15.0095 
85 81 15.0095 85.9905 81 16 86 80.9905 16 
71 82 15.0095 70.0095 82 16 79 82 15.0095 
80 82 15.0095 81 82 15.0095 82 82 15.0095 
83 82 15.0095 84 82 15.0095 84.9905 82 16 
85 81.9905 16 70.0095 83 16 79 83 15.0095 
80 83 15.0095 81 83 15.0095 82 83 15.0095 
83 83 15.0095 83.9905 83 16 84 82.9905 16 
71 84 15.0095 70.0095 84 16 72 84 15.0095 
73 84 15.0095 74 84 15.0095 75 84 15.0095 
76 84 15.0095 77 84 15.0095 78 84 15.0095 
79 84 15.0095 80 84 15.0095 81 84 15.0095 
82 84 15.0095 82.9905 84 16 83 83.9905 16 
71 85 15.0095 70.0095 85 16 72 85 15.0095 
73 85 15.0095 74 85 15.0095 75 85 15.0095 
76 85 15.0095 77 85 15.0095 78 85 15.0095 
79 85 15.0095 80 85 15.0095 81 85 15.0095 
81.9905 85 16 82 84.9905 16 71 86 15.0095 
70.0095 86 16 72 86 15.0095 73 86 15.0095 
74 86 15.0095 74.9905 86 16 75 85.9905 16 
76 85.9905 16 77 85.9905 16 78 85.9905 16 
79 85.9905 16 80 85.9905 16 81 85.9905 16 
71 87 15.0095 70.0095 87 16 72 87 15.0095 
73 87 15.0095 73.9905 87 16 74 86.9905 16 
71 87.9905 16 72 87.9905 16 73 87.9905 16 
80 64.0095 17 79.0095 65 17 80.9905 65 17 
79 65.0095 17 78.0095 66 17 81 65.0095 17 
82 65.0095 17 83 65.0095 17 84 65.0095 17 
84.9905 66 17 78 66.0095 17 77.0095 67 17 
85 66.0095 17 85 67 16.0095 86 67 16.0095 
86 66.0095 17 86.9905 67 17 77 67.0095 17 
76.0095 68 17 86.9905 68 17 76 68.0095 17 
75.0095 69 17 87 68.0095 17 87 69 16.0095 
87.9905 69 17 75 69.0095 17 74.0095 70 17 
88 69.0095 17 88.9905 70 17 74 70.0095 17 
73.0095 71 17 88.9905 71 17 73 71.0095 17 
72.0095 72 17 88.9905 72 17 72 73 16.0095 
72 72.0095 17 71.0095 73 17 88.9905 73 17 
72 74 16.0095 71.0095 74 17 88.9905 74 17 
71 75 16.0095 71 74.0095 17 70.0095 75 17 
88.9905 75 17 70.0095 76 17 88.9905 76 17 
70.0095 77 17 87.9905 77 17 88 76.9905 17 
70.0095 78 17 86.9905 78 17 87 77.9905 17 
70.0095 79 17 86.9905 79 17 70.0095 80 17 
86.9905 80 17 70 81 16.0095 70 80.0095 17 
69.0095 81 17 85.9905 81 17 86 80.9905 17 
70 82 16.0095 69.0095 82 17 84.9905 82 17 
85 81.9905 17 70 83 16.0095 69.0095 83 17 
83.9905 83 17 84 82.9905 17 70 84 16.0095 
69.0095 84 17 82.9905 84 17 83 83.9905 17 
70 85 16.0095 69.0095 85 17 81.9905 85 17 
82 84.9905 17 70 85.9905 17 70.0095 86 17 
74.9905 86 17 75 85.9905 17 76 85.9905 17 
77 85.9905 17 78 85.9905 17 79 85.9905 17 
80 85.9905 17 81 85.9905 17 70.0095 87 17 
73.9905 87 17 74 86.9905 17 71 87.9905 17 
72 87.9905 17 73 87.9905 17 80 64.0095 18 
79.0095 65 18 80.9905 65 18 79 65.0095 18 
78.0095 66 18 81 65.0095 18 82 65.0095 18 
83 65.0095 18 84 65.0095 18 85 66 17.0095 
85 65.0095 18 86 66 17.0095 86 65.0095 18 
87 66 17.0095 87 65.0095 18 88 66 17.0095 
88 65.0095 18 88.9905 66 18 78 66.0095 18 
77.0095 67 18 87 67 17.0095 88 67 17.0095 
88.9905 67 18 77 67.0095 18 76.0095 68 18 
87 68 17.0095 88 68 17.0095 88.9905 68 18 
76 68.0095 18 75.0095 69 18 88 69 17.0095 
88.9905 69 18 75 69.0095 18 74.0095 70 18 
88.9905 70 18 74 70.0095 18 73.0095 71 18 
88.9905 71 18 73 71.0095 18 72.0095 72 18 
88.9905 72 18 72 72.0095 18 71.0095 73 18 
88.9905 73 18 71 74 17.0095 71 73.0095 18 
70.0095 74 18 88.9905 74 18 70.0095 75 18 
88.9905 75 18 70.0095 76 18 88.9905 76 18 
70.0095 77 18 87.9905 77 18 88 76.9905 18 
70.0095 78 18 86.9905 78 18 87 77.9905 18 
70.0095 79 18 86.9905 79 18 70.0095 80 18 
86.9905 80 18 70 80.0095 18 69.0095 81 18 
85.9905 81 18 86 80.9905 18 69 82 17.0095 
69 81.0095 18 68.0095 82 18 84.9905 82 18 
85 81.9905 18 69 83 17.0095 68.0095 83 18 
83.9905 83 18 84 82.9905 18 69 84 17.0095 
68.0095 84 18 82.9905 84 18 83 83.9905 18 
69 85 17.0095 68.0095 85 18 81.9905 85 18 
82 84.9905 18 69 85.9905 18 70 85.9905 18 
70.0095 86 18 75 86 17.0095 76 86 17.0095 
77 86 17.0095 78 86 17.0095 78.9905 86 18 
79 85.9905 18 80 85.9905 18 81 85.9905 18 
70.0095 87 18 74 87 17.0095 75 87 17.0095 
76 87 17.0095 77 87 17.0095 77.9905 87 18 
78 86.9905 18 71 87.9905 18 72 87.9905 18 
73 87.9905 18 74 87.9905 18 75 87.9905 18 
76 87.9905 18 77 87.9905 18 80 64.0095 19 
[...]
POINT_DATA 2908
SCALARS scalars float
LOOKUP_TABLE default
1 1 1 1 1 1 1 1 1 
1 1 1 1 1 1 1 1 1 
1 1 1 1 1 1 1 1 1 
1 1 1 1 1 1 1 1 1 
1 1 1 1 1 1 1 1 1 
1 1 1 1 1 1 1 1 1 
1 1 1 1 1 1 1 1 1 
1 1 1 1 1 1 1 1 1 
1 1 1 1 1 1 1 1 1 
1 1 1 1 1 1 1 1 1 
1 1 1 1 1 1 1 1 1 
1 1 1 1 1 1 1 1 1 
1 1 1 1 1 1 1 1 1 
1 1 1 1 1 1 1 1 1 
1 1 1 1 1 1 1 1 1 
1 1 1 1 1 1 1 1 1 
1 1 1 1 1 1 1 1 1 
1 1 1 1 1 1 1 1 1 
1 1 1 1 1 1 1 1 1 
1 1 1 1 1 1 1 1 1 
1 1 1 1 1 1 1 1 1 
1 1 1 1 1 1 1 1 1 
1 1 1 1 1 1 1 1 1 
1 1 1 1 1 1 1 1 1 
1 1 1 1 1 1 1 1 1 
1 1 1 1 1 1 1 1 1 
1 1 1 1 1 1 1 1 1 
1 1 1 1 1 1 1 1 1 
1 1 1 1 1 1 1 1 1 
1 1 1 1 1 1 1 1 1 
1 1 1 1 1 1 1 1 1 
1 1 1 1 1 1 1 1 1 
1 1 1 1 1 1 1 1 1 
1 1 1 1 1 1 1 1 1 
1 1 1 1 1 1 1 1 1 
1 1 1 1 1 1 1 1 1 
1 1 1 1 1 1 1 1 1 
1 1 1 1 1 1 1 1 1 
1 1 1 1 1 1 1 1 1 
1 1 1 1 1 1 1 1 1 
1 1 1 1 1 1 1 1 1 
1 1 1 1 1 1 1 1 1 
1 1 1 1 1 1 1 1 1 
1 1 1 1 1 1 1 1 1 
1 1 1 1 1 1 1 1 1 
1 1 1 1 1 1 1 1 1 
1 1 1 1 1 1 1 1 1 
1 1 1 1 1 1 1 1 1 
1 1 1 1 1 1 1 1 1 
1 1 1 1 1 1 1 1 1 
1 1 1 1 1 1 1 1 1 
1 1 1 1 1 1 1 1 1 
1 1 1 1 1 1 1 1 1 
1 1 1 1 1 1 1 1 1 
1 1 1 1 1 1 1 1 1 
1 1 1 1 1 1 1 1 1 
1 1 1 1 1 1 1 1 1 
1 1 1 1 1 1 1 1 1 
1 1 1 1 1 1 1 1 1 
1 1 1 1 1 1 1 1 1 
1 1 1 1 1 1 1 1 1 
1 1 1 1 1 1 1 1 1 
1 1 1 1 1 1 1 1 1 
1 1 1 1 1 1 1 1 1 
1 1 1 1 1 1 1 1 1 
1 1 1 1 1 1 1 1 1 
1 1 1 1 1 1 1 1 1 
1 1 1 1 1 1 1 1 1 
1 1 1 1 1 1 1 1 1 
1 1 1 1 1 1 1 1 1 
1 1 1 1 1 1 1 1 1 
1 1 1 1 1 1 1 1 1 
1 1 1 1 1 1 1 1 1 
1 1 1 1 1 1 1 1 1 
1 1 1 1 1 1 1 1 1 
1 1 1 1 1 1 1 1 1 
1 1 1 1 1 1 1 1 1 
1 1 1 1 1 1 1 1 1 
1 1 1 1 1 1 1 1 1 
1 1 1 1 1 1 1 1 1 
1 1 1 1 1 1 1 1 1 
1 1 1 1 1 1 1 1 1 
1 1 1 1 1 1 1 1 1 
1 1 1 1 1 1 1 1 1 
1 1 1 1 1 1 1 1 1 
1 1 1 1 1 1 1 1 1 
1 1 1 1 1 1 1 1 1 
1 1 1 1 1 1 1 1 1 
1 1 1 1 1 1 1 1 1 
1 1 1 1 1 1 1 1 1 
1 1 1 1 1 1 1 1 1 
1 1 1 1 1 1 1 1 1 
1 1 1 1 1 1 1 1 1 
1 1 1 1 1 1 1 1 1 
1 1 1 1 1 1 1 1 1 
1 1 1 1 1 1 1 1 1 
1 1 1 1 1 1 1 1 1 
1 1 1 1 1 1 1 1 1 
1 1 1 1 1 1 1 1 1 
1 1 1 1 1 1 1 1 1 
1 1 1 1 1 1 1 1 1 
1 1 1 1 1 1 1 1 1 
1 1 1 1 1 1 1 1 1 
1 1 1 1 1 1 1 1 1 
1 1 1 1 1 1 1 1 1 
1 1 1 1 1 1 1 1 1 
1 1 1 1 1 1 1 1 1 
1 1 1 1 1 1 1 1 1 
1 1 1 1 1 1 1 1 1 
1 1 1 1 1 1 1 1 1 
1 1 1 1 1 1 1 1 1 
1 1 1 1 1 1 1 1 1 
1 1 1 1 1 1 1 1 1 
1 1 1 1 1 1 1 1 1 
1 1 1 1 1 1 1 1 1 
1 1 1 1 1 1 1 1 1 
1 1 1 1 1 1 1 1 1 
1 1 1 1 1 1 1 1 1 
1 1 1 1 1 1 1 1 1 
1 1 1 1 1 1 1 1 1 
1 1 1 1 1 1 1 1 1 
1 1 1 1 1 1 1 1 1 
1 1 1 1 1 1 1 1 1 
1 1 1 1 1 1 1 1 1 
1 1 1 1 1 1 1 1 1 
1 1 1 1 1 1 1 1 1 
1 1 1 1 1 1 1 1 1 
1 1 1 1 1 1 1 1 1 
1 1 1 1 1 1 1 1 1 
1 1 1 1 1 1 1 1 1 
1 1 1 1 1 1 1 1 1 
1 1 1 1 1 1 1 1 1 
1 1 1 1 1 1 1 1 1 
1 1 1 1 1 1 1 1 1 
1 1 1 1 1 1 1 1 1 
1 1 1 1 1 1 1 1 1 
1 1 1 1 1 1 1 1 1 
1 1 1 1 1 1 1 1 1 
1 1 1 1 1 1 1 1 1 
1 1 1 1 1 1 1 1 1 
1 1 1 1 1 1 1 1 1 
1 1 1 1 1 1 1 1 1 
1 1 1 1 1 1 1 1 1 
1 1 1 1 1 1 1 1 1 
1 1 1 1 1 1 1 1 1 
1 1 1 1 1 1 1 1 1 
1 1 1 1 1 1 1 1 1 
1 1 1 1 1 1 1 1 1 
1 1 1 1 1 1 1 1 1 
1 1 1 1 1 1 1 1 1 
1 1 1 1 1 1 1 1 1 
1 1 1 1 1 1 1 1 1 
1 1 1 1 1 1 1 1 1 
1 1 1 1 1 1 1 1 1 
1 1 1 1 1 1 1 1 1 
1 1 1 1 1 1 1 1 1 
1 1 1 1 1 1 1 1 1 
1 1 1 1 1 1 1 1 1 
1 1 1 1 1 1 1 1 1 
1 1 1 1 1 1 1 1 1 
1 1 1 1 1 1 1 1 1 
1 1 1 1 1 1 1 1 1 
1 1 1 1 1 1 1 1 1 
1 1 1 1 1 1 1 1 1 
1 1 1 1 1 1 1 1 1 
1 1 1 1 1 1 1 1 1 
1 1 1 1 1 1 1 1 1 
1 1 1 1 1 1 1 1 1 
1 1 1 1 1 1 1 1 1 
1 1 1 1 1 1 1 1 1 
1 1 1 1 1 1 1 1 1 
1 1 1 1 1 1 1 1 1 
1 1 1 1 1 1 1 1 1 
1 1 1 1 1 1 1 1 1 
1 1 1 1 1 1 1 1 1 
1 1 1 1 1 1 1 1 1 
1 1 1 1 1 1 1 1 1 
1 1 1 1 1 1 1 1 1 
1 1 1 1 1 1 1 1 1 
1 1 1 1 1 1 1 1 1 
1 1 1 1 1 1 1 1 1 
1 1 1 1 1 1 1 1 1 
1 1 1 1 1 1 1 1 1 
1 1 1 1 1 1 1 1 1 
1 1 1 1 1 1 1 1 1 
1 1 1 1 1 1 1 1 1 
1 1 1 1 1 1 1 1 1 
1 1 1 1 1 1 1 1 1 
1 1 1 1 1 1 1 1 1 
1 1 1 1 1 1 1 1 1 
1 1 1 1 1 1 1 1 1 
1 1 1 1 1 1 1 1 1 
1 1 1 1 1 1 1 1 1 
1 1 1 1 1 1 1 1 1 
1 1 1 1 1 1 1 1 1 
1 1 1 1 1 1 1 1 1 
1 1 1 1 1 1 1 1 1 
1 1 1 1 1 1 1 1 1 
1 1 1 1 1 1 1 1 1 
1 1 1 1 1 1 1 1 1 
1 1 1 1 1 1 1 1 1 
1 1 1 1 1 1 1 1 1 
1 1 1 1 1 1 1 1 1 
1 1 1 1 1 1 1 1 1 
1 1 1 1 1 1 1 1 1 
1 1 1 1 1 1 1 1 1 
1 1 1 1 1 1 1 1 1 
1 1 1 1 1 1 1 1 1 
1 1 1 1 1 1 1 1 1 
1 1 1 1 1 1 1 1 1 
1 1 1 1 1 1 1 1 1 
1 1 1 1 1 1 1 1 1 
1 1 1 1 1 1 1 1 1 
1 1 1 1 1 1 1 1 1 
1 1 1 1 1 1 1 1 1 
1 1 1 1 1 1 1 1 1 
1 1 1 1 1 1 1 1 1 
1 1 1 1 1 1 1 1 1 
1 1 1 1 1 1 1 1 1 
1 1 1 1 1 1 1 1 1 
1 1 1 1 1 1 1 1 1 
1 1 1 1 1 1 1 1 1 
1 1 1 1 1 1 1 1 1 
1 1 1 1 1 1 1 1 1 
1 1 1 1 1 1 1 1 1 
1 1 1 1 1 1 1 1 1 
1 1 1 1 1 1 1 1 1 
1 1 1 1 1 1 1 1 1 
1 1 1 1 1 1 1 1 1 
1 1 1 1 1 1 1 1 1 
1 1 1 1 1 1 1 1 1 
1 1 1 1 1 1 1 1 1 
1 1 1 1 1 1 1 1 1 
1 1 1 1 1 1 1 1 1 
1 1 1 1 1 1 1 1 1 
1 1 1 1 1 1 1 1 1 
1 1 1 1 1 1 1 1 1 
1 1 1 1 1 1 1 1 1 
1 1 1 1 1 1 1 1 1 
1 1 1 1 1 1 1 1 1 
1 1 1 1 1 1 1 1 1 
1 1 1 1 1 1 1 1 1 
1 1 1 1 1 1 1 1 1 
1 1 1 1 1 1 1 1 1 
1 1 1 1 1 1 1 1 1 
1 1 1 1 1 1 1 1 1 
1 1 1 1 1 1 1 1 1 
1 1 1 1 1 1 1 1 1 
1 1 1 1 1 1 1 1 1 
1 1 1 1 1 1 1 1 1 
1 1 1 1 1 1 1 1 1 
1 1 1 1 1 1 1 1 1 
1 1 1 1 1 1 1 1 1 
1 1 1 1 1 1 1 1 1 
1 1 1 1 1 1 1 1 1 
1 1 1 1 1 1 1 1 1 
1 1 1 1 1 1 1 1 1 
1 1 1 1 1 1 1 1 1 
1 1 1 1 1 1 1 1 1 
1 1 1 1 1 1 1 1 1 
1 1 1 1 1 1 1 1 1 
1 1 1 1 1 1 1 1 1 
1 1 1 1 1 1 1 1 1 
1 1 1 1 1 1 1 1 1 
1 1 1 1 1 1 1 1 1 
1 1 1 1 1 1 1 1 1 
1 1 1 1 1 1 1 1 1 
1 1 1 1 1 1 1 1 1 
1 1 1 1 1 1 1 1 1 
1 1 1 1 1 1 1 1 1 
1 1 1 1 1 1 1 1 1 
1 1 1 1 1 1 1 1 1 
1 1 1 1 1 1 1 1 1 
1 1 1 1 1 1 1 1 1 
1 1 1 1 1 1 1 1 1 
1 1 1 1 1 1 1 1 1 
1 1 1 1 1 1 1 1 1 
1 1 1 1 1 1 1 1 1 
1 1 1 1 1 1 1 1 1 
1 1 1 1 1 1 1 1 1 
1 1 1 1 1 1 1 1 1 
1 1 1 1 1 1 1 1 1 
1 1 1 1 1 1 1 1 1 
1 1 1 1 1 1 1 1 1 
1 1 1 1 1 1 1 1 1 
1 1 1 1 1 1 1 1 1 
1 1 1 1 1 1 1 1 1 
1 1 1 1 1 1 1 1 1 
1 1 1 1 1 1 1 1 1 
1 1 1 1 1 1 1 1 1 
1 1 1 1 1 1 1 1 1 
1 1 1 1 1 1 1 1 1 
1 1 1 1 1 1 1 1 1 
1 1 1 1 1 1 1 1 1 
1 1 1 1 1 1 1 1 1 
1 1 1 1 1 1 1 1 1 
1 1 1 1 1 1 1 1 1 
1 1 1 1 1 1 1 1 1 
1 1 1 1 1 1 1 1 1 
1 1 1 1 1 1 1 1 1 
1 1 1 1 1 1 1 1 1 
1 1 1 1 1 1 1 1 1 
1 1 1 1 1 1 1 1 1 
1 1 1 1 1 1 1 1 1 
1 1 1 1 1 1 1 1 1 
1 1 1 1 1 1 1 1 1 
1 1 1 1 1 1 1 1 1 
1 1 1 1 1 1 1 1 1 
1 1 1 1 1 1 1 1 1 
1 1 1 1 1 1 1 1 1 
1 1 1 1 1 1 1 1 1 
1 1 1 1 1 1 1 1 1 
1 1 1 1 1 1 1 1 1 
1 1 1 1 1 1 1 1 1 
1 1 1 1 1 1 1 1 1 
1 1 1 1 1 1 1 1 1 
1 1 1 1 1 1 1 1 1 
1 1 1 1 1 1 1 1 1 
1 1 1 1 1 1 1 1 1 
1 1 1 1 1 1 1 1 1 
1 1 1 1 1 1 1 1 1 
1 1 1 1 1 1 1 1 1 
1 1 1 1 1 1 1 1 1 
1 
NORMALS normals float
-0.00952295 -0.00952295 -0.999909 -0.0067342 -0.707091 -0.707091 -0.707091 -0.707091 -0.0067342 
0 -0.00952338 -0.999955 0 -0.707107 -0.707107 0 -0.00952338 -0.999955 
0 -0.707107 -0.707107 0 -0.00952338 -0.999955 0 -0.707107 -0.707107 
0 -0.00952338 -0.999955 0 -0.707107 -0.707107 0 -0.00952338 -0.999955 
0 -0.707107 -0.707107 0 -0.00952338 -0.999955 0 -0.707107 -0.707107 
0.00952295 -0.00952295 -0.999909 0.00952295 -0.999909 -0.00952295 0.999909 -0.00952295 -0.00952295 
-0.00952295 -0.00952295 -0.999909 -0.707091 -0.707091 -0.0067342 -0.707091 -0.707091 -0.0067342 
0 0 -1 0 0 -1 0 0 -1 
0 0 -1 0 0 -1 0 0 -1 
0 0 -1 0.00952338 0 -0.999955 0.999955 0 -0.00952338 
-0.00952295 -0.00952295 -0.999909 -0.707091 -0.707091 -0.0067342 -0.707091 -0.707091 -0.0067342 
0 0 -1 0 0 -1 0 0 -1 
0 0 -1 0 0 -1 0 0 -1 
0 0 -1 0 0 -1 0.00952338 0 -0.999955 
0.999955 0 -0.00952338 -0.00952295 -0.00952295 -0.999909 -0.707091 -0.707091 -0.0067342 
-0.707091 -0.707091 -0.0067342 0 0 -1 0 0 -1 
0 0 -1 0 0 -1 0 0 -1 
0 0 -1 0 0 -1 0 0 -1 
0 0 -1 0.00952338 0 -0.999955 0.999955 0 -0.00952338 
-0.00952295 -0.00952295 -0.999909 -0.707091 -0.707091 -0.0067342 -0.999909 -0.00952295 -0.00952295 
0 0 -1 0 0 -1 0 0 -1 
0 0 -1 0 0 -1 0 0 -1 
0 0 -1 0 0 -1 0 0 -1 
0 0 -1 0.00952338 0 -0.999955 0.999955 0 -0.00952338 
-0.00952338 0 -0.999955 -0.999955 0 -0.00952338 0 0 -1 
0 0 -1 0 0 -1 0 0 -1 
0 0 -1 0 0 -1 0 0 -1 
0 0 -1 0 0 -1 0 0 -1 
0.00952338 0 -0.999955 0.999955 0 -0.00952338 -0.00952338 0 -0.999955 
-0.999955 0 -0.00952338 0 0 -1 0 0 -1 
0 0 -1 0 0 -1 0 0 -1 
0 0 -1 0 0 -1 0 0 -1 
0 0 -1 0 0 -1 0.00952338 0 -0.999955 
0.999955 0 -0.00952338 -0.00952338 0 -0.999955 -0.707107 0 -0.707107 
0 0 -1 0 0 -1 0 0 -1 
0 0 -1 0 0 -1 0 0 -1 
0 0 -1 0 0 -1 0 0 -1 
0 0 -1 0.00952338 0 -0.999955 0.999955 0 -0.00952338 
-0.00952338 0 -0.999955 -0.707107 0 -0.707107 0 0 -1 
0 0 -1 0 0 -1 0 0 -1 
0 0 -1 0 0 -1 0 0 -1 
0 0 -1 0 0 -1 0 0 -1 
0.00952338 0 -0.999955 0.999955 0 -0.00952338 -0.00952338 0 -0.999955 
-0.707107 0 -0.707107 0 0 -1 0 0 -1 
0 0 -1 0 0 -1 0 0 -1 
0 0 -1 0 0 -1 0 0 -1 
0 0 -1 0 0 -1 0.00952338 0 -0.999955 
0.999955 0 -0.00952338 -0.00952338 0 -0.999955 -0.707107 0 -0.707107 
0 0 -1 0 0 -1 0 0 -1 
0 0 -1 0 0 -1 0 0 -1 
0 0 -1 0 0 -1 0 0 -1 
0 0 -1 0.00952295 0.00952295 -0.999909 0.999909 0.00952295 -0.00952295 
-0.00952338 0 -0.999955 -0.707107 0 -0.707107 0 0 -1 
0 0 -1 0 0 -1 0 0 -1 
0 0 -1 0 0 -1 0 0 -1 
0 0 -1 0 0 -1 0.00952295 0.00952295 -0.999909 
0.57735 0.57735 -0.57735 0.57735 0.57735 -0.57735 -0.00952338 0 -0.999955 
-0.707107 0 -0.707107 0 0 -1 0 0 -1 
0 0 -1 0 0 -1 0 0 -1 
0 0 -1 0 0 -1 0 0 -1 
0.00952295 0.00952295 -0.999909 0.707091 0.707091 -0.0067342 0.707091 0.707091 -0.0067342 
-0.00952338 0 -0.999955 -0.707107 0 -0.707107 0 0 -1 
0 0 -1 0 0 -1 0 0 -1 
0 0 -1 0 0.00952338 -0.999955 0 0.00952338 -0.999955 
0.00952295 0.00952295 -0.999909 0.57735 0.57735 -0.57735 0.57735 0.57735 -0.57735 
-0.00952338 0 -0.999955 -0.707107 0 -0.707107 0 0 -1 
0 0 -1 0 0 -1 0 0 -1 
0.00952295 0.00952295 -0.999909 0.707091 0.707091 -0.0067342 0.703699 0.710466 -0.00676634 
0 0.999955 -0.00952338 0.00952295 0.999909 -0.00952295 -0.00952295 0.00952295 -0.999909 
-0.707091 0.0067342 -0.707091 0 0.00952338 -0.999955 0 0.00952338 -0.999955 
0 0.00952338 -0.999955 0.00952295 0.00952295 -0.999909 0.57735 0.57735 -0.57735 
0.57735 0.57735 -0.57735 -0.00952295 0.999909 -0.00952295 0 0.999955 -0.00952338 
0 0.999955 -0.00952338 0 0.999955 -0.00952338 0.00952295 0.999909 -0.00952295 
-0.00676634 -0.710466 -0.703699 -0.00952338 -0.999955 0 -0.999955 -0.00952338 0 
0 -0.707107 -0.707107 0 -0.999955 -0.00952338 0 -0.707107 -0.707107 
0 -0.707107 -0.707107 0 -0.707107 -0.707107 0 -0.707107 -0.707107 
0 -0.707107 -0.707107 0 -0.707107 -0.707107 0 -0.707107 -0.707107 
0 -0.707107 -0.707107 0.0067342 -0.707091 -0.707091 0.0067342 -0.707091 -0.707091 
0.57735 -0.57735 -0.57735 -0.710482 -0.703715 0 0.579183 -0.579183 -0.573667 
0.710466 -0.00676634 -0.703699 -0.707107 -0.707107 0 -0.707107 -0.707107 0 
0.710482 0 -0.703715 -0.707107 -0.707107 0 -0.707107 -0.707107 0 
0.710482 0 -0.703715 -0.707107 -0.707107 0 -0.707107 -0.707107 0 
0.710482 0 -0.703715 -0.707107 -0.707107 0 -0.999955 -0.00952338 0 
0.710482 0 -0.703715 -1 0 0 0.710482 0 -0.703715 
-0.710482 -0.703715 0 0.710482 0 -0.703715 -0.707091 -0.0067342 -0.707091 
-0.707091 -0.707091 -0.0067342 -0.999909 -0.00952295 -0.00952295 0.710482 0 -0.703715 
-0.707107 0 -0.707107 -0.707107 0 -0.707107 0.710482 0 -0.703715 
-0.707107 0 -0.707107 -0.707107 0 -0.707107 0.710482 0 -0.703715 
-0.707107 0 -0.707107 -0.707107 0 -0.707107 0.710482 0 -0.703715 
-0.707107 0 -0.707107 -0.707107 0 -0.707107 0.57735 0.57735 -0.57735 
0.707091 0.0067342 -0.707091 -0.707107 0 -0.707107 -0.707107 0 -0.707107 
0.581033 0.5755 -0.5755 0.5755 0.581033 -0.5755 0.0067342 0.707091 -0.707091 
-0.707107 0 -0.707107 -0.707107 0 -0.707107 0.57735 0.57735 -0.57735 
0.707091 0.0067342 -0.707091 -0.707107 0 -0.707107 -0.579183 -0.573667 -0.579183 
0.581033 0.5755 -0.5755 0.5755 0.581033 -0.5755 0 0.710482 -0.703715 
0 0.710482 -0.703715 0.0067342 0.707091 -0.707091 -0.00952338 0 -0.999955 
-0.579183 -0.573667 -0.579183 -0.999955 0 -0.00952338 -0.703699 0.00676634 -0.710466 
0.57735 0.57735 -0.57735 0.707091 0.0067342 -0.707091 -0.00676634 0.703699 -0.710466 
0 0.707107 -0.707107 0 0.710482 -0.703715 0 0.710482 -0.703715 
0 0.710482 -0.703715 0 0.710482 -0.703715 0 0.710482 -0.703715 
0.0067342 0.707091 -0.707091 0 -0.00952338 -0.999955 0 -0.999955 -0.00952338 
-0.703699 -0.710466 -0.00676634 0.703699 -0.710466 -0.00676634 -0.0067342 -0.707091 -0.707091 
-0.707091 -0.707091 -0.0067342 -0.707091 -0.707091 -0.0067342 0 -0.703715 -0.710482 
0.703699 -0.710466 -0.00676634 0 -0.707107 -0.707107 0 -0.707107 -0.707107 
0 -0.999955 -0.00952338 0 -0.707107 -0.707107 0 -0.999955 -0.00952338 
0.00952295 -0.00952295 -0.999909 0.00952295 -0.999909 -0.00952295 0.999909 -0.00952295 -0.00952295 
-0.579183 -0.579183 0.573667 -0.579183 -0.579183 0.573667 -0.707107 -0.707107 0 
0.579183 -0.573667 -0.579183 0.579183 -0.573667 -0.579183 -0.579183 -0.579183 0.573667 
-0.707107 -0.707107 0 0.703699 -0.00676634 -0.710466 0.573667 -0.579183 -0.579183 
0.00952295 -0.00952295 -0.999909 0.0067342 -0.707091 -0.707091 0.999909 -0.00952295 -0.00952295 
-0.707107 -0.707107 0 -0.707107 -0.707107 0 0.703715 0 -0.710482 
0.00952338 0 -0.999955 0.579183 -0.573667 -0.579183 -0.707107 -0.707107 0 
-0.707107 -0.707107 0 0.703715 0 -0.710482 0 0 -1 
0.573667 -0.579183 -0.579183 0 -0.00952338 -0.999955 0.00952295 -0.00952295 -0.999909 
0.00952295 -0.999909 -0.00952295 0.999909 -0.00952295 -0.00952295 -0.707107 -0.707107 0 
-0.707107 -0.707107 0 0.703715 0 -0.710482 0 0 -1 
0 0 -1 0.00952338 0 -0.999955 0.999955 0 -0.00952338 
-0.707107 -0.707107 0 -0.999955 -0.00952338 0 0.703715 0 -0.710482 
0 0 -1 0 0 -1 0.00952338 0 -0.999955 
0.999955 0 -0.00952338 -0.710482 0 -0.703715 0.703715 0 -0.710482 
0 0 -1 0 0 -1 0.00952338 0 -0.999955 
0.999955 0 -0.00952338 -0.581033 -0.5755 -0.5755 0.703715 0 -0.710482 
0 0 -1 0 0 -1 0.00952338 0 -0.999955 
0.999955 0 -0.00952338 -0.579183 -0.579183 -0.573667 -0.579183 -0.579183 -0.573667 
0.703715 0 -0.710482 0 0 -1 0 0 -1 
0.00952338 0 -0.999955 0.999955 0 -0.00952338 -0.707091 -0.0067342 -0.707091 
-0.57735 -0.57735 -0.57735 -0.999909 -0.00952295 -0.00952295 0.703715 0 -0.710482 
0 0 -1 0 0 -1 0.00952295 0.00952295 -0.999909 
0.999909 0.00952295 -0.00952295 -0.707107 0 -0.707107 -0.999955 0 -0.00952338 
0.703715 0 -0.710482 0 0 -1 0.00952295 0.00952295 -0.999909 
0.707091 0.707091 -0.0067342 0.707091 0.707091 -0.0067342 -0.707107 0 -0.707107 
-0.999955 0 -0.00952338 0.703715 0 -0.710482 0.00952338 0 -0.999955 
0.710466 0.703699 -0.00676634 0.707091 0.707091 -0.0067342 -0.707107 0 -0.707107 
-0.999955 0 -0.00952338 0.703715 0 -0.710482 0.00952338 0 -0.999955 
0.999955 0 -0.00952338 -0.707107 0 -0.707107 -0.999955 0 -0.00952338 
0.5755 0.5755 -0.581033 0 0.703715 -0.710482 0 0 -1 
0.00952295 0.00952295 -0.999909 0.999909 0.00952295 -0.00952295 -0.707107 0 -0.707107 
-0.707107 0 -0.707107 0.703715 0 -0.710482 0 0 -1 
0.00952295 0.00952295 -0.999909 0.707091 0.707091 -0.0067342 0.707091 0.707091 -0.0067342 
-0.579183 -0.573667 -0.579183 -0.707107 0 -0.707107 0.5755 0.5755 -0.581033 
0 0.703715 -0.710482 0 0.703715 -0.710482 0 0.703715 -0.710482 
0 0 -1 0.00952295 0.00952295 -0.999909 0.707091 0.707091 -0.0067342 
0.707091 0.707091 -0.0067342 -0.710482 0 -0.703715 0.703715 0 -0.710482 
0 0 -1 0 0 -1 0 0 -1 
0.00952295 0.00952295 -0.999909 0.707091 0.707091 -0.0067342 0.707091 0.707091 -0.0067342 
-0.00676634 0.703699 -0.710466 -0.707107 0 -0.707107 0 0.703715 -0.710482 
0 0.703715 -0.710482 0 0.703715 -0.710482 0 0.703715 -0.710482 
0 0.703715 -0.710482 0 0.703715 -0.710482 0 0.703715 -0.710482 
0 0 -1 0 0 -1 0 0 -1 
0.00952295 0.00952295 -0.999909 0.707091 0.707091 -0.0067342 0.707091 0.707091 -0.0067342 
-0.00952338 0 -0.999955 -0.707107 0 -0.707107 0 0 -1 
0 0 -1 0 0 -1 0 0.00952338 -0.999955 
0 0.00952338 -0.999955 0 0.00952338 -0.999955 0 0.00952338 -0.999955 
0 0.00952338 -0.999955 0 0.00952338 -0.999955 0.00952295 0.00952295 -0.999909 
0.707091 0.707091 -0.0067342 0.707091 0.707091 -0.0067342 -0.00952338 0 -0.999955 
-0.999955 0 -0.00952338 0 0 -1 0 0 -1 
0.00952295 0.00952295 -0.999909 0.707091 0.707091 -0.0067342 0.703699 0.710466 -0.00676634 
0 0.999955 -0.00952338 0 0.999955 -0.00952338 0 0.999955 -0.00952338 
0 0.999955 -0.00952338 0 0.999955 -0.00952338 0.00952295 0.999909 -0.00952295 
-0.00952295 0.00952295 -0.999909 -0.999909 0.00952295 -0.00952295 0 0.00952338 -0.999955 
0.00952295 0.00952295 -0.999909 0.707091 0.707091 -0.0067342 0.707091 0.707091 -0.0067342 
-0.00952295 0.999909 -0.00952295 0 0.999955 -0.00952338 0.00952295 0.999909 -0.00952295 
0 -1 0 -0.703715 -0.710482 0 0.703715 -0.710482 0 
-0.707107 -0.707107 0 -0.707107 -0.707107 0 0.703715 -0.710482 0 
0 -1 0 0 -1 0 0.00952338 -0.999955 0 
0.579183 -0.579183 -0.573667 -0.707107 -0.707107 0 -0.707107 -0.707107 0 
0.573667 -0.579183 -0.579183 0.573667 -0.579183 -0.579183 0.0067342 -0.707091 -0.707091 
0.0067342 -0.707091 -0.707091 0.707091 -0.0067342 -0.707091 -0.707107 -0.707107 0 
-0.707107 -0.707107 0 0.581033 -0.5755 -0.5755 -0.707107 -0.707107 0 
-0.707107 -0.707107 0 0.57735 -0.57735 -0.57735 0.57735 -0.57735 -0.57735 
0.57735 -0.57735 -0.57735 -0.707107 -0.707107 0 -0.707107 -0.707107 0 
0.579183 -0.579183 -0.573667 0.999955 -0.00952338 0 -0.707107 -0.707107 0 
-0.707107 -0.707107 0 1 0 0 -0.707107 -0.707107 0 
-0.707107 -0.707107 0 1 0 0 -0.707091 -0.0067342 -0.707091 
-0.707091 -0.707091 -0.0067342 -0.999909 -0.00952295 -0.00952295 1 0 0 
-0.579183 -0.573667 -0.579183 -0.579183 -0.573667 -0.579183 1 0 0 
-0.57735 -0.57735 -0.57735 -0.57735 -0.57735 -0.57735 -0.999909 -0.00952295 -0.00952295 
1 0 0 -1 0 0 0.999955 0.00952338 0 
-1 0 0 0.707107 0.707107 0 0.707107 0.707107 0 
-1 0 0 0.710482 0.703715 0 0.707107 0.707107 0 
-1 0 0 1 0 0 -0.710482 -0.703715 0 
0.999955 0.00952338 0 -0.707091 -0.0067342 -0.707091 -0.707091 -0.707091 -0.0067342 
-0.999909 -0.00952295 -0.00952295 0.707107 0.707107 0 0.707107 0.707107 0 
-0.707107 0 -0.707107 -0.707107 0 -0.707107 0.707107 0.707107 0 
0.707107 0.707107 0 -0.707107 0 -0.707107 -0.707107 0 -0.707107 
0.707107 0.707107 0 0.707107 0.707107 0 -0.707107 0 -0.707107 
-0.707107 0 -0.707107 0.707107 0.707107 0 0.707107 0.707107 0 
-0.707091 0.0067342 -0.707091 -0.707091 0.0067342 -0.707091 0.707107 0.707107 0 
0.707107 0.707107 0 -0.707091 0.707091 -0.0067342 -0.710482 0.703715 0 
0.579183 0.579183 -0.573667 0.5755 0.581033 -0.5755 0 0.710482 -0.703715 
0 0.710482 -0.703715 0 0.710482 -0.703715 0 1 0 
0 1 0 0.00952338 0.999955 0 -0.999955 0.00952338 0 
0.579183 0.579183 -0.573667 0.579183 0.579183 -0.573667 -0.00952338 0.999955 0 
0 1 0 0.00952338 0.999955 0 0 -1 0 
-0.703715 -0.710482 0 0.5755 -0.581033 -0.5755 -0.707107 -0.707107 0 
-0.707107 -0.707107 0 0.5755 -0.581033 -0.5755 0 -0.710482 -0.703715 
0 -1 0 0 -1 0 0.573667 -0.579183 -0.579183 
0 -0.999955 -0.00952338 0 -0.707107 -0.707107 0 -0.999955 -0.00952338 
0 -0.00952338 -0.999955 0 -0.999955 -0.00952338 0.00952295 -0.00952295 -0.999909 
0.00952295 -0.999909 -0.00952295 0.999909 -0.00952295 -0.00952295 -0.707107 -0.707107 0 
-0.707107 -0.707107 0 0.703715 0 -0.710482 0.00952338 0 -0.999955 
0.999955 0 -0.00952338 -0.707107 -0.707107 0 -0.579183 -0.579183 -0.573667 
0.5755 -0.5755 -0.581033 0.00952338 0 -0.999955 0.999955 0 -0.00952338 
-0.579183 -0.579183 -0.573667 -0.579183 -0.579183 -0.573667 0.579183 -0.573667 -0.579183 
0.999955 0 -0.00952338 -0.579183 -0.579183 -0.573667 -0.579183 -0.579183 -0.573667 
1 0 0 -0.579183 -0.579183 -0.573667 -0.579183 -0.579183 -0.573667 
1 0 0 -0.579183 -0.579183 -0.573667 -0.579183 -0.579183 -0.573667 
1 0 0 -0.579183 -0.579183 -0.573667 -0.579183 -0.579183 -0.573667 
1 0 0 -0.57735 -0.57735 -0.57735 -0.57735 -0.57735 -0.57735 
-0.999909 -0.00952295 -0.00952295 1 0 0 -0.710482 0 -0.703715 
1 0 0 -0.710482 0 -0.703715 0.999955 0.00952338 0 
-0.710482 0 -0.703715 0.707107 0.707107 0 0.707107 0.707107 0 
-0.710482 0 -0.703715 0.710482 0.703715 0 0.707107 0.707107 0 
-0.710482 0 -0.703715 1 0 0 -0.581033 -0.5755 -0.5755 
0.999955 0.00952338 0 -0.579183 -0.579183 -0.573667 -0.579183 -0.579183 -0.573667 
0.707107 0.707107 0 0.707107 0.707107 0 -0.707091 -0.0067342 -0.707091 
-0.57735 -0.57735 -0.57735 -0.999909 -0.00952295 -0.00952295 0.707091 0.707091 0.0067342 
0.707107 0.707107 0 -0.707107 0 -0.707107 -0.999955 0 -0.00952338 
0.707091 0.707091 0.0067342 0.707091 0.707091 0.0067342 -0.707107 0 -0.707107 
-0.999955 0 -0.00952338 0.707091 0.707091 0.0067342 0.707091 0.707091 0.0067342 