# vtk DataFile Version 3.0
vtk output
ASCII
DATASET POLYDATA
POINTS 7770 float
128 50 18.0106 128 49.0106 19 127.011 50 19 
128.989 50 19 128 50.9894 19 129 50.0106 19 
128.011 51 19 129 51 18.0106 130 51 18.0106 
130 50.0106 19 131 51 18.0106 131 50.0106 19 
131.989 51 19 129 51.9894 19 130 51.9894 19 
131 51.9894 19 132 51.0106 19 131.011 52 19 
132 52 18.0106 132.989 52 19 132 53 18.0106 
131.011 53 19 133 52.0106 19 133 53 18.0106 
133.989 53 19 132 53.9894 19 133 53.9894 19 
134 53.0106 19 133.011 54 19 134 54 18.0106 
134.989 54 19 134 55 18.0106 133.011 55 19 
135 54.0106 19 135 55 18.0106 135.989 55 19 
134 55.9894 19 135 55.9894 19 136 55.0106 19 
135.011 56 19 136 56 18.0106 136.989 56 19 
136 57 18.0106 135.011 57 19 136.989 57 19 
136 58 18.0106 135.011 58 19 136.989 58 19 
136 59 18.0106 135.011 59 19 137 58.0106 19 
137 59 18.0106 138 59 18.0106 138 58.0106 19 
138.989 59 19 136 59.9894 19 137 59.9894 19 
137.011 60 19 138 60 18.0106 138.989 60 19 
138 61 18.0106 137.011 61 19 139 60.0106 19 
139 61 18.0106 139.989 61 19 138 61.9894 19 
139 61.9894 19 140 63 18.0106 140 62.0106 19 
139.011 63 19 140.989 63 19 140 64 18.0106 
139.011 64 19 140.989 64 19 140 65 18.0106 
139.011 65 19 140.989 65 19 140 66 18.0106 
139.011 66 19 140.989 66 19 140 67 18.0106 
139.011 67 19 141 66.0106 19 141 67 18.0106 
141.989 67 19 140 67.9894 19 141 67.9894 19 
142 67.0106 19 141.011 68 19 142 68 18.0106 
142.989 68 19 142 69 18.0106 141.011 69 19 
142.989 69 19 142 70 18.0106 141.011 70 19 
142.989 70 19 142 71 18.0106 141.011 71 19 
142.989 71 19 142 72 18.0106 141.011 72 19 
142.989 72 19 140 73 18.0106 140 72.0106 19 
139.011 73 19 141 73 18.0106 141 72.0106 19 
142 72.9894 19 141.989 73 19 140 74 18.0106 
139.011 74 19 140.989 74 19 141 73.9894 19 
140 75 18.0106 139.011 75 19 140.989 75 19 
140 76 18.0106 139.011 76 19 140.989 76 19 
140 77 18.0106 139.011 77 19 140.989 77 19 
140 78 18.0106 139.011 78 19 140.989 78 19 
139 79 18.0106 139 78.0106 19 138.011 79 19 
140 78.9894 19 139.989 79 19 139 79.9894 19 
119 46 19.0106 119 45.0106 20 118.011 46 20 
120 46 19.0106 120 45.0106 20 120.989 46 20 
119 47 19.0106 118.011 47 20 119.989 47 20 
120 46.9894 20 119 47.9894 20 123 48 19.0106 
123 47.0106 20 122.011 48 20 124 48 19.0106 
124 47.0106 20 125 48 19.0106 125 47.0106 20 
126 48 19.0106 126 47.0106 20 126.989 48 20 
123 49 19.0106 122.011 49 20 124 49 19.0106 
125 49 19.0106 126 49 19.0106 126.989 49 20 
123 49.9894 20 124 49.9894 20 125 49.9894 20 
126 49.9894 20 127 49.0106 20 126.011 50 20 
127 50 19.0106 128 49.0106 20 129 50 19.0106 
129 49.0106 20 130 50 19.0106 130 49.0106 20 
131 50 19.0106 131 49.0106 20 132 50 19.0106 
132 49.0106 20 132.989 50 20 127 51 19.0106 
126.011 51 20 128 51 19.0106 132 51 19.0106 
132.989 51 20 127 51.9894 20 128 51.9894 20 
129 52 19.0106 128.011 52 20 130 52 19.0106 
131 52 19.0106 133 52 19.0106 133 51.0106 20 
134 52 19.0106 134 51.0106 20 134.989 52 20 
129 53 19.0106 128.011 53 20 130 53 19.0106 
131 53 19.0106 134 53 19.0106 134.989 53 20 
129 53.9894 20 130 53.9894 20 130.011 54 20 
131 54 19.0106 132 54 19.0106 133 54 19.0106 
135 54 19.0106 135 53.0106 20 136 54 19.0106 
136 53.0106 20 136.989 54 20 131 55 19.0106 
130.011 55 20 132 55 19.0106 133 55 19.0106 
136 55 19.0106 136.989 55 20 131 56 19.0106 
130.011 56 20 132 56 19.0106 133 56 19.0106 
134 56 19.0106 135 56 19.0106 137 56 19.0106 
137 55.0106 20 138 56 19.0106 138 55.0106 20 
138.989 56 20 131 57 19.0106 130.011 57 20 
132 57 19.0106 133 57 19.0106 134 57 19.0106 
135 57 19.0106 137 57 19.0106 138 57 19.0106 
138.989 57 20 131 57.9894 20 132 57.9894 20 
132.011 58 20 133 58 19.0106 134 58 19.0106 
135 58 19.0106 137 58 19.0106 138 58 19.0106 
139 57.0106 20 139 58 19.0106 140 58 19.0106 
140 57.0106 20 140.989 58 20 133 59 19.0106 
132.011 59 20 134 59 19.0106 135 59 19.0106 
139 59 19.0106 140 59 19.0106 140.989 59 20 
133 59.9894 20 134 59.9894 20 134.011 60 20 
135 60 19.0106 136 60 19.0106 137 60 19.0106 
139 60 19.0106 140 60 19.0106 140.989 60 20 
135 61 19.0106 134.011 61 20 136 61 19.0106 
137 61 19.0106 140 61 19.0106 140.989 61 20 
135 62 19.0106 134.011 62 20 136 62 19.0106 
137 62 19.0106 138 62 19.0106 139 62 19.0106 
140 62 19.0106 140.989 62 20 135 63 19.0106 
134.011 63 20 136 63 19.0106 137 63 19.0106 
138 63 19.0106 139 63 19.0106 140.989 63 20 
135 63.9894 20 136 63.9894 20 136.011 64 20 
137 64 19.0106 138 64 19.0106 139 64 19.0106 
141 63.0106 20 141 64 19.0106 142 64 19.0106 
142 63.0106 20 142.989 64 20 137 65 19.0106 
136.011 65 20 138 65 19.0106 139 65 19.0106 
141 65 19.0106 142 65 19.0106 142.989 65 20 
137 66 19.0106 136.011 66 20 138 66 19.0106 
139 66 19.0106 141 66 19.0106 142 66 19.0106 
142.989 66 20 137 67 19.0106 136.011 67 20 
138 67 19.0106 139 67 19.0106 142 67 19.0106 
142.989 67 20 137 68 19.0106 136.011 68 20 
138 68 19.0106 139 68 19.0106 140 68 19.0106 
141 68 19.0106 143 68 19.0106 143 67.0106 20 
144 68 19.0106 144 67.0106 20 144.989 68 20 
137 69 19.0106 136.011 69 20 138 69 19.0106 
139 69 19.0106 140 69 19.0106 141 69 19.0106 
143 69 19.0106 144 69 19.0106 144.989 69 20 
137 70 19.0106 136.011 70 20 138 70 19.0106 
139 70 19.0106 140 70 19.0106 141 70 19.0106 
143 70 19.0106 144 70 19.0106 144.989 70 20 
137 71 19.0106 136.011 71 20 138 71 19.0106 
139 71 19.0106 140 71 19.0106 141 71 19.0106 
143 71 19.0106 144 71 19.0106 144.989 71 20 
137 71.9894 20 138 71.9894 20 138.011 72 20 
139 72 19.0106 140 72 19.0106 141 72 19.0106 
143 72 19.0106 144 72 19.0106 144.989 72 20 
139 73 19.0106 138.011 73 20 142 73 19.0106 
143 73 19.0106 143.989 73 20 144 72.9894 20 
139 74 19.0106 138.011 74 20 141 74 19.0106 
142 74 19.0106 142.989 74 20 143 73.9894 20 
139 75 19.0106 138.011 75 20 141 75 19.0106 
142 75 19.0106 142.989 75 20 139 76 19.0106 
138.011 76 20 141 76 19.0106 142 76 19.0106 
142.989 76 20 139 77 19.0106 138.011 77 20 
141 77 19.0106 142 77 19.0106 142.989 77 20 
139 78 19.0106 138.011 78 20 141 78 19.0106 
142 78 19.0106 142.989 78 20 138.011 79 20 
140 79 19.0106 141 79 19.0106 141.989 79 20 
142 78.9894 20 139 80 19.0106 138.011 80 20 
140 80 19.0106 140.989 80 20 141 79.9894 20 
139 81 19.0106 138.011 81 20 139.989 81 20 
140 80.9894 20 139 81.9894 20 114 45 20.0106 
114 44.0106 21 113.011 45 21 115 45 20.0106 
115 44.0106 21 116 45 20.0106 116 44.0106 21 
117 45 20.0106 117 44.0106 21 118 45 20.0106 
118 44.0106 21 119 45 20.0106 119 44.0106 21 
119.989 45 21 114 45.9894 21 115 45.9894 21 
116 45.9894 21 117 45.9894 21 117.011 46 21 
118 46 20.0106 120 45.0106 21 120.989 46 21 
118 46.9894 21 118.011 47 21 120 47 20.0106 
121 46.0106 21 121 47 20.0106 122 47 20.0106 
122 46.0106 21 123 47 20.0106 123 46.0106 21 
124 47 20.0106 124 46.0106 21 125 47 20.0106 
125 46.0106 21 125.989 47 21 119 47.9894 21 
120 47.9894 21 121 47.9894 21 121.011 48 21 
122 48 20.0106 126 47.0106 21 126.989 48 21 
122 48.9894 21 122.011 49 21 127 48.0106 21 
127 49 20.0106 128 49 20.0106 128 48.0106 21 
129 49 20.0106 129 48.0106 21 130 49 20.0106 
130 48.0106 21 130.989 49 21 123 49.9894 21 
124 49.9894 21 125 49.9894 21 126 50 20.0106 
125.011 50 21 131 49.0106 21 132 49.0106 21 
132.989 50 21 126 50.9894 21 126.011 51 21 
132.989 51 21 127 51.9894 21 128 52 20.0106 
127.011 52 21 133 51.0106 21 134 51.0106 21 
134.989 52 21 128 52.9894 21 128.011 53 21 
135 52.0106 21 135 53 20.0106 135.989 53 21 
129 53.9894 21 130 54 20.0106 129.011 54 21 
136 53.0106 21 136.989 54 21 130 55 20.0106 
129.011 55 21 137 54.0106 21 137 55 20.0106 
137.989 55 21 130 55.9894 21 130.011 56 21 
138 55.0106 21 138.989 56 21 130.011 57 21 
139 56.0106 21 139 57 20.0106 139.989 57 21 
131 57.9894 21 132 58 20.0106 131.011 58 21 
140 57.0106 21 140.989 58 21 132 58.9894 21 
132.011 59 21 140.989 59 21 133 59.9894 21 
134 60 20.0106 133.011 60 21 140.989 60 21 
134 61 20.0106 133.011 61 21 140.989 61 21 
134 61.9894 21 134.011 62 21 140.989 62 21 
134.011 63 21 141 62.0106 21 141 63 20.0106 
141.989 63 21 135 63.9894 21 136 64 20.0106 
135.011 64 21 142 63.0106 21 142.989 64 21 
136 65 20.0106 135.011 65 21 142.989 65 21 
136 66 20.0106 135.011 66 21 142.989 66 21 
136 67 20.0106 135.011 67 21 143 66.0106 21 
143 67 20.0106 143.989 67 21 136 68 20.0106 
135.011 68 21 144 67.0106 21 144.989 68 21 
136 69 20.0106 135.011 69 21 144.989 69 21 
136 70 20.0106 135.011 70 21 144.989 70 21 
136 71 20.0106 135.011 71 21 144.989 71 21 
136 71.9894 21 137 71.9894 21 138 72 20.0106 
137.011 72 21 144.989 72 21 138 73 20.0106 
137.011 73 21 143.989 73 21 144 72.9894 21 
138 74 20.0106 137.011 74 21 142.989 74 21 
143 73.9894 21 138 75 20.0106 137.011 75 21 
142.989 75 21 138 76 20.0106 137.011 76 21 
142.989 76 21 138 77 20.0106 137.011 77 21 
142.989 77 21 138 78 20.0106 137.011 78 21 
142.989 78 21 138 79 20.0106 137.011 79 21 
141.989 79 21 142 78.9894 21 138 80 20.0106 
137.011 80 21 140.989 80 21 141 79.9894 21 
138 81 20.0106 137.011 81 21 140 81 20.0106 
140.989 81 21 138 82 20.0106 137.011 82 21 
139 81.9894 21 138.989 82 21 140 81.9894 21 
136 83 20.0106 136 82.0106 21 135.011 83 21 
137 83 20.0106 137 82.0106 21 138 82.9894 21 
137.989 83 21 136 84 20.0106 135.011 84 21 
136.989 84 21 137 83.9894 21 135 85 20.0106 
135 84.0106 21 134.011 85 21 136 84.9894 21 
135.989 85 21 135 85.9894 21 111 44 21.0106 
111 43.0106 22 110.011 44 22 112 44 21.0106 
112 43.0106 22 113 44 21.0106 113 43.0106 22 
114 44 21.0106 114 43.0106 22 115 44 21.0106 
115 43.0106 22 116 44 21.0106 116 43.0106 22 
117 44 21.0106 117 43.0106 22 118 44 21.0106 
118 43.0106 22 119 44 21.0106 119 43.0106 22 
120 44 21.0106 120 43.0106 22 120.989 44 22 
111 45 21.0106 110.011 45 22 112 45 21.0106 
113 45 21.0106 120 45 21.0106 120.989 45 22 
111 45.9894 22 112 45.9894 22 113 45.9894 22 
114 45.9894 22 115 46 21.0106 114.011 46 22 
116 46 21.0106 117 46 21.0106 121 46 21.0106 
121 45.0106 22 122 46 21.0106 122 45.0106 22 
123 46 21.0106 123 45.0106 22 124 46 21.0106 
124 45.0106 22 125 46 21.0106 125 45.0106 22 
[...]
POINT_DATA 7770
SCALARS scalars float
LOOKUP_TABLE default
1 1 1 1 1 1 1 1 1 
1 1 1 1 1 1 1 1 1 
1 1 1 1 1 1 1 1 1 
1 1 1 1 1 1 1 1 1 
1 1 1 1 1 1 1 1 1 
1 1 1 1 1 1 1 1 1 
1 1 1 1 1 1 1 1 1 
1 1 1 1 1 1 1 1 1 
1 1 1 1 1 1 1 1 1 
1 1 1 1 1 1 1 1 1 
1 1 1 1 1 1 1 1 1 
1 1 1 1 1 1 1 1 1 
1 1 1 1 1 1 1 1 1 
1 1 1 1 1 1 1 1 1 
1 1 1 1 1 1 1 1 1 
1 1 1 1 1 1 1 1 1 
1 1 1 1 1 1 1 1 1 
1 1 1 1 1 1 1 1 1 
1 1 1 1 1 1 1 1 1 
1 1 1 1 1 1 1 1 1 
1 1 1 1 1 1 1 1 1 
1 1 1 1 1 1 1 1 1 
1 1 1 1 1 1 1 1 1 
1 1 1 1 1 1 1 1 1 
1 1 1 1 1 1 1 1 1 
1 1 1 1 1 1 1 1 1 
1 1 1 1 1 1 1 1 1 
1 1 1 1 1 1 1 1 1 
1 1 1 1 1 1 1 1 1 
1 1 1 1 1 1 1 1 1 
1 1 1 1 1 1 1 1 1 
1 1 1 1 1 1 1 1 1 
1 1 1 1 1 1 1 1 1 
1 1 1 1 1 1 1 1 1 
1 1 1 1 1 1 1 1 1 
1 1 1 1 1 1 1 1 1 
1 1 1 1 1 1 1 1 1 
1 1 1 1 1 1 1 1 1 
1 1 1 1 1 1 1 1 1 
1 1 1 1 1 1 1 1 1 
1 1 1 1 1 1 1 1 1 
1 1 1 1 1 1 1 1 1 
1 1 1 1 1 1 1 1 1 
1 1 1 1 1 1 1 1 1 
1 1 1 1 1 1 1 1 1 
1 1 1 1 1 1 1 1 1 
1 1 1 1 1 1 1 1 1 
1 1 1 1 1 1 1 1 1 
1 1 1 1 1 1 1 1 1 
1 1 1 1 1 1 1 1 1 
1 1 1 1 1 1 1 1 1 
1 1 1 1 1 1 1 1 1 
1 1 1 1 1 1 1 1 1 
1 1 1 1 1 1 1 1 1 
1 1 1 1 1 1 1 1 1 
1 1 1 1 1 1 1 1 1 
1 1 1 1 1 1 1 1 1 
1 1 1 1 1 1 1 1 1 
1 1 1 1 1 1 1 1 1 
1 1 1 1 1 1 1 1 1 
1 1 1 1 1 1 1 1 1 
1 1 1 1 1 1 1 1 1 
1 1 1 1 1 1 1 1 1 
1 1 1 1 1 1 1 1 1 
1 1 1 1 1 1 1 1 1 
1 1 1 1 1 1 1 1 1 
1 1 1 1 1 1 1 1 1 
1 1 1 1 1 1 1 1 1 
1 1 1 1 1 1 1 1 1 
1 1 1 1 1 1 1 1 1 
1 1 1 1 1 1 1 1 1 
1 1 1 1 1 1 1 1 1 
1 1 1 1 1 1 1 1 1 
1 1 1 1 1 1 1 1 1 
1 1 1 1 1 1 1 1 1 
1 1 1 1 1 1 1 1 1 
1 1 1 1 1 1 1 1 1 
1 1 1 1 1 1 1 1 1 
1 1 1 1 1 1 1 1 1 
1 1 1 1 1 1 1 1 1 
1 1 1 1 1 1 1 1 1 
1 1 1 1 1 1 1 1 1 
1 1 1 1 1 1 1 1 1 
1 1 1 1 1 1 1 1 1 
1 1 1 1 1 1 1 1 1 
1 1 1 1 1 1 1 1 1 
1 1 1 1 1 1 1 1 1 
1 1 1 1 1 1 1 1 1 
1 1 1 1 1 1 1 1 1 
1 1 1 1 1 1 1 1 1 
1 1 1 1 1 1 1 1 1 
1 1 1 1 1 1 1 1 1 
1 1 1 1 1 1 1 1 1 
1 1 1 1 1 1 1 1 1 
1 1 1 1 1 1 1 1 1 
1 1 1 1 1 1 1 1 1 
1 1 1 1 1 1 1 1 1 
1 1 1 1 1 1 1 1 1 
1 1 1 1 1 1 1 1 1 
1 1 1 1 1 1 1 1 1 
1 1 1 1 1 1 1 1 1 
1 1 1 1 1 1 1 1 1 
1 1 1 1 1 1 1 1 1 
1 1 1 1 1 1 1 1 1 
1 1 1 1 1 1 1 1 1 
1 1 1 1 1 1 1 1 1 
1 1 1 1 1 1 1 1 1 
1 1 1 1 1 1 1 1 1 
1 1 1 1 1 1 1 1 1 
1 1 1 1 1 1 1 1 1 
1 1 1 1 1 1 1 1 1 
1 1 1 1 1 1 1 1 1 
1 1 1 1 1 1 1 1 1 
1 1 1 1 1 1 1 1 1 
1 1 1 1 1 1 1 1 1 
1 1 1 1 1 1 1 1 1 
1 1 1 1 1 1 1 1 1 
1 1 1 1 1 1 1 1 1 
1 1 1 1 1 1 1 1 1 
1 1 1 1 1 1 1 1 1 
1 1 1 1 1 1 1 1 1 
1 1 1 1 1 1 1 1 1 
1 1 1 1 1 1 1 1 1 
1 1 1 1 1 1 1 1 1 
1 1 1 1 1 1 1 1 1 
1 1 1 1 1 1 1 1 1 
1 1 1 1 1 1 1 1 1 
1 1 1 1 1 1 1 1 1 
1 1 1 1 1 1 1 1 1 
1 1 1 1 1 1 1 1 1 
1 1 1 1 1 1 1 1 1 
1 1 1 1 1 1 1 1 1 
1 1 1 1 1 1 1 1 1 
1 1 1 1 1 1 1 1 1 
1 1 1 1 1 1 1 1 1 
1 1 1 1 1 1 1 1 1 
1 1 1 1 1 1 1 1 1 
1 1 1 1 1 1 1 1 1 
1 1 1 1 1 1 1 1 1 
1 1 1 1 1 1 1 1 1 
1 1 1 1 1 1 1 1 1 
1 1 1 1 1 1 1 1 1 
1 1 1 1 1 1 1 1 1 
1 1 1 1 1 1 1 1 1 
1 1 1 1 1 1 1 1 1 
1 1 1 1 1 1 1 1 1 
1 1 1 1 1 1 1 1 1 
1 1 1 1 1 1 1 1 1 
1 1 1 1 1 1 1 1 1 
1 1 1 1 1 1 1 1 1 
1 1 1 1 1 1 1 1 1 
1 1 1 1 1 1 1 1 1 
1 1 1 1 1 1 1 1 1 
1 1 1 1 1 1 1 1 1 
1 1 1 1 1 1 1 1 1 
1 1 1 1 1 1 1 1 1 
1 1 1 1 1 1 1 1 1 
1 1 1 1 1 1 1 1 1 
1 1 1 1 1 1 1 1 1 
1 1 1 1 1 1 1 1 1 
1 1 1 1 1 1 1 1 1 
1 1 1 1 1 1 1 1 1 
1 1 1 1 1 1 1 1 1 
1 1 1 1 1 1 1 1 1 
1 1 1 1 1 1 1 1 1 
1 1 1 1 1 1 1 1 1 
1 1 1 1 1 1 1 1 1 
1 1 1 1 1 1 1 1 1 
1 1 1 1 1 1 1 1 1 
1 1 1 1 1 1 1 1 1 
1 1 1 1 1 1 1 1 1 
1 1 1 1 1 1 1 1 1 
1 1 1 1 1 1 1 1 1 
1 1 1 1 1 1 1 1 1 
1 1 1 1 1 1 1 1 1 
1 1 1 1 1 1 1 1 1 
1 1 1 1 1 1 1 1 1 
1 1 1 1 1 1 1 1 1 
1 1 1 1 1 1 1 1 1 
1 1 1 1 1 1 1 1 1 
1 1 1 1 1 1 1 1 1 
1 1 1 1 1 1 1 1 1 
1 1 1 1 1 1 1 1 1 
1 1 1 1 1 1 1 1 1 
1 1 1 1 1 1 1 1 1 
1 1 1 1 1 1 1 1 1 
1 1 1 1 1 1 1 1 1 
1 1 1 1 1 1 1 1 1 
1 1 1 1 1 1 1 1 1 
1 1 1 1 1 1 1 1 1 
1 1 1 1 1 1 1 1 1 
1 1 1 1 1 1 1 1 1 
1 1 1 1 1 1 1 1 1 
1 1 1 1 1 1 1 1 1 
1 1 1 1 1 1 1 1 1 
1 1 1 1 1 1 1 1 1 
1 1 1 1 1 1 1 1 1 
1 1 1 1 1 1 1 1 1 
1 1 1 1 1 1 1 1 1 
1 1 1 1 1 1 1 1 1 
1 1 1 1 1 1 1 1 1 
1 1 1 1 1 1 1 1 1 
1 1 1 1 1 1 1 1 1 
1 1 1 1 1 1 1 1 1 
1 1 1 1 1 1 1 1 1 
1 1 1 1 1 1 1 1 1 
1 1 1 1 1 1 1 1 1 
1 1 1 1 1 1 1 1 1 
1 1 1 1 1 1 1 1 1 
1 1 1 1 1 1 1 1 1 
1 1 1 1 1 1 1 1 1 
1 1 1 1 1 1 1 1 1 
1 1 1 1 1 1 1 1 1 
1 1 1 1 1 1 1 1 1 
1 1 1 1 1 1 1 1 1 
1 1 1 1 1 1 1 1 1 
1 1 1 1 1 1 1 1 1 
1 1 1 1 1 1 1 1 1 
1 1 1 1 1 1 1 1 1 
1 1 1 1 1 1 1 1 1 
1 1 1 1 1 1 1 1 1 
1 1 1 1 1 1 1 1 1 
1 1 1 1 1 1 1 1 1 
1 1 1 1 1 1 1 1 1 
1 1 1 1 1 1 1 1 1 
1 1 1 1 1 1 1 1 1 
1 1 1 1 1 1 1 1 1 
1 1 1 1 1 1 1 1 1 
1 1 1 1 1 1 1 1 1 
1 1 1 1 1 1 1 1 1 
1 1 1 1 1 1 1 1 1 
1 1 1 1 1 1 1 1 1 
1 1 1 1 1 1 1 1 1 
1 1 1 1 1 1 1 1 1 
1 1 1 1 1 1 1 1 1 
1 1 1 1 1 1 1 1 1 
1 1 1 1 1 1 1 1 1 
1 1 1 1 1 1 1 1 1 
1 1 1 1 1 1 1 1 1 
1 1 1 1 1 1 1 1 1 
1 1 1 1 1 1 1 1 1 
1 1 1 1 1 1 1 1 1 
1 1 1 1 1 1 1 1 1 
1 1 1 1 1 1 1 1 1 
1 1 1 1 1 1 1 1 1 
1 1 1 1 1 1 1 1 1 
1 1 1 1 1 1 1 1 1 
1 1 1 1 1 1 1 1 1 
1 1 1 1 1 1 1 1 1 
1 1 1 1 1 1 1 1 1 
1 1 1 1 1 1 1 1 1 
1 1 1 1 1 1 1 1 1 
1 1 1 1 1 1 1 1 1 
1 1 1 1 1 1 1 1 1 
1 1 1 1 1 1 1 1 1 
1 1 1 1 1 1 1 1 1 
1 1 1 1 1 1 1 1 1 
1 1 1 1 1 1 1 1 1 
1 1 1 1 1 1 1 1 1 
1 1 1 1 1 1 1 1 1 
1 1 1 1 1 1 1 1 1 
1 1 1 1 1 1 1 1 1 
1 1 1 1 1 1 1 1 1 
1 1 1 1 1 1 1 1 1 
1 1 1 1 1 1 1 1 1 
1 1 1 1 1 1 1 1 1 
1 1 1 1 1 1 1 1 1 
1 1 1 1 1 1 1 1 1 
1 1 1 1 1 1 1 1 1 
1 1 1 1 1 1 1 1 1 
1 1 1 1 1 1 1 1 1 
1 1 1 1 1 1 1 1 1 
1 1 1 1 1 1 1 1 1 
1 1 1 1 1 1 1 1 1 
1 1 1 1 1 1 1 1 1 
1 1 1 1 1 1 1 1 1 
1 1 1 1 1 1 1 1 1 
1 1 1 1 1 1 1 1 1 
1 1 1 1 1 1 1 1 1 
1 1 1 1 1 1 1 1 1 
1 1 1 1 1 1 1 1 1 
1 1 1 1 1 1 1 1 1 
1 1 1 1 1 1 1 1 1 
1 1 1 1 1 1 1 1 1 
1 1 1 1 1 1 1 1 1 
1 1 1 1 1 1 1 1 1 
1 1 1 1 1 1 1 1 1 
1 1 1 1 1 1 1 1 1 
1 1 1 1 1 1 1 1 1 
1 1 1 1 1 1 1 1 1 
1 1 1 1 1 1 1 1 1 
1 1 1 1 1 1 1 1 1 
1 1 1 1 1 1 1 1 1 
1 1 1 1 1 1 1 1 1 
1 1 1 1 1 1 1 1 1 
1 1 1 1 1 1 1 1 1 
1 1 1 1 1 1 1 1 1 
1 1 1 1 1 1 1 1 1 
1 1 1 1 1 1 1 1 1 
1 1 1 1 1 1 1 1 1 
1 1 1 1 1 1 1 1 1 
1 1 1 1 1 1 1 1 1 
1 1 1 1 1 1 1 1 1 
1 1 1 1 1 1 1 1 1 
1 1 1 1 1 1 1 1 1 
1 1 1 1 1 1 1 1 1 
1 1 1 1 1 1 1 1 1 
1 1 1 1 1 1 1 1 1 
1 1 1 1 1 1 1 1 1 
1 1 1 1 1 1 1 1 1 
1 1 1 1 1 1 1 1 1 
1 1 1 1 1 1 1 1 1 
1 1 1 1 1 1 1 1 1 
1 1 1 1 1 1 1 1 1 
1 1 1 1 1 1 1 1 1 
1 1 1 1 1 1 1 1 1 
1 1 1 1 1 1 1 1 1 
1 1 1 1 1 1 1 1 1 
1 1 1 1 1 1 1 1 1 
1 1 1 1 1 1 1 1 1 
1 1 1 1 1 1 1 1 1 
1 1 1 1 1 1 1 1 1 
1 1 1 1 1 1 1 1 1 
1 1 1 1 1 1 1 1 1 
1 1 1 1 1 1 1 1 1 
1 1 1 1 1 1 1 1 1 
1 1 1 1 1 1 1 1 1 
1 1 1 1 1 1 1 1 1 
1 1 1 1 1 1 1 1 1 
1 1 1 1 1 1 1 1 1 
1 1 1 1 1 1 1 1 1 
1 1 1 1 1 1 1 1 1 
1 1 1 1 1 1 1 1 1 
1 1 1 1 1 1 1 1 1 
1 1 1 1 1 1 1 1 1 
1 1 1 1 1 1 1 1 1 
1 1 1 1 1 1 1 1 1 
1 1 1 1 1 1 1 1 1 
1 1 1 1 1 1 1 1 1 
1 1 1 1 1 1 1 1 1 
1 1 1 1 1 1 1 1 1 
1 1 1 1 1 1 1 1 1 
1 1 1 1 1 1 1 1 1 
1 1 1 1 1 1 1 1 1 
1 1 1 1 1 1 1 1 1 
1 1 1 1 1 1 1 1 1 
1 1 1 1 1 1 1 1 1 
1 1 1 1 1 1 1 1 1 
1 1 1 1 1 1 1 1 1 
1 1 1 1 1 1 1 1 1 
1 1 1 1 1 1 1 1 1 
1 1 1 1 1 1 1 1 1 
1 1 1 1 1 1 1 1 1 
1 1 1 1 1 1 1 1 1 
1 1 1 1 1 1 1 1 1 
1 1 1 1 1 1 1 1 1 
1 1 1 1 1 1 1 1 1 
1 1 1 1 1 1 1 1 1 
1 1 1 1 1 1 1 1 1 
1 1 1 1 1 1 1 1 1 
1 1 1 1 1 1 1 1 1 
1 1 1 1 1 1 1 1 1 
1 1 1 1 1 1 1 1 1 
1 1 1 1 1 1 1 1 1 
1 1 1 1 1 1 1 1 1 
1 1 1 1 1 1 1 1 1 
1 1 1 1 1 1 1 1 1 
1 1 1 1 1 1 1 1 1 
1 1 1 1 1 1 1 1 1 
1 1 1 1 1 1 1 1 1 
1 1 1 1 1 1 1 1 1 
1 1 1 1 1 1 1 1 1 
1 1 1 1 1 1 1 1 1 
1 1 1 1 1 1 1 1 1 
1 1 1 1 1 1 1 1 1 
1 1 1 1 1 1 1 1 1 
1 1 1 1 1 1 1 1 1 
1 1 1 1 1 1 1 1 1 
1 1 1 1 1 1 1 1 1 
1 1 1 1 1 1 1 1 1 
1 1 1 1 1 1 1 1 1 
1 1 1 1 1 1 1 1 1 
1 1 1 1 1 1 1 1 1 
1 1 1 1 1 1 1 1 1 
1 1 1 1 1 1 1 1 1 
1 1 1 1 1 1 1 1 1 
1 1 1 1 1 1 1 1 1 
1 1 1 1 1 1 1 1 1 
1 1 1 1 1 1 1 1 1 
1 1 1 1 1 1 1 1 1 
1 1 1 1 1 1 1 1 1 
1 1 1 1 1 1 1 1 1 
1 1 1 1 1 1 1 1 1 
1 1 1 1 1 1 1 1 1 
1 1 1 1 1 1 1 1 1 
1 1 1 1 1 1 1 1 1 
1 1 1 1 1 1 1 1 1 
1 1 1 1 1 1 1 1 1 
1 1 1 1 1 1 1 1 1 
1 1 1 1 1 1 1 1 1 
1 1 1 1 1 1 1 1 1 
1 1 1 1 1 1 1 1 1 
1 1 1 1 1 1 1 1 1 
1 1 1 1 1 1 1 1 1 
1 1 1 1 1 1 1 1 1 
1 1 1 1 1 1 1 1 1 
1 1 1 1 1 1 1 1 1 
1 1 1 1 1 1 1 1 1 
1 1 1 1 1 1 1 1 1 
1 1 1 1 1 1 1 1 1 
1 1 1 1 1 1 1 1 1 
1 1 1 1 1 1 1 1 1 
1 1 1 1 1 1 1 1 1 
1 1 1 1 1 1 1 1 1 
1 1 1 1 1 1 1 1 1 
1 1 1 1 1 1 1 1 1 
1 1 1 1 1 1 1 1 1 
1 1 1 1 1 1 1 1 1 
1 1 1 1 1 1 1 1 1 
1 1 1 1 1 1 1 1 1 
1 1 1 1 1 1 1 1 1 
1 1 1 1 1 1 1 1 1 
1 1 1 1 1 1 1 1 1 
1 1 1 1 1 1 1 1 1 
1 1 1 1 1 1 1 1 1 
1 1 1 1 1 1 1 1 1 
1 1 1 1 1 1 1 1 1 
1 1 1 1 1 1 1 1 1 
1 1 1 1 1 1 1 1 1 
1 1 1 1 1 1 1 1 1 
1 1 1 1 1 1 1 1 1 
1 1 1 1 1 1 1 1 1 
1 1 1 1 1 1 1 1 1 
1 1 1 1 1 1 1 1 1 
1 1 1 1 1 1 1 1 1 
1 1 1 1 1 1 1 1 1 
1 1 1 1 1 1 1 1 1 
1 1 1 1 1 1 1 1 1 
1 1 1 1 1 1 1 1 1 
1 1 1 1 1 1 1 1 1 
1 1 1 1 1 1 1 1 1 
1 1 1 1 1 1 1 1 1 
1 1 1 1 1 1 1 1 1 
1 1 1 1 1 1 1 1 1 
1 1 1 1 1 1 1 1 1 
1 1 1 1 1 1 1 1 1 
1 1 1 1 1 1 1 1 1 
1 1 1 1 1 1 1 1 1 
1 1 1 1 1 1 1 1 1 
1 1 1 1 1 1 1 1 1 
1 1 1 1 1 1 1 1 1 
1 1 1 1 1 1 1 1 1 
1 1 1 1 1 1 1 1 1 
1 1 1 1 1 1 1 1 1 
1 1 1 1 1 1 1 1 1 
1 1 1 1 1 1 1 1 1 
1 1 1 1 1 1 1 1 1 
1 1 1 1 1 1 1 1 1 
1 1 1 1 1 1 1 1 1 
1 1 1 1 1 1 1 1 1 
1 1 1 1 1 1 1 1 1 
1 1 1 1 1 1 1 1 1 
1 1 1 1 1 1 1 1 1 
1 1 1 1 1 1 1 1 1 
1 1 1 1 1 1 1 1 1 
1 1 1 1 1 1 1 1 1 
1 1 1 1 1 1 1 1 1 
1 1 1 1 1 1 1 1 1 
1 1 1 1 1 1 1 1 1 
1 1 1 1 1 1 1 1 1 
1 1 1 1 1 1 1 1 1 
1 1 1 1 1 1 1 1 1 
1 1 1 1 1 1 1 1 1 
1 1 1 1 1 1 1 1 1 
1 1 1 1 1 1 1 1 1 
1 1 1 1 1 1 1 1 1 
1 1 1 1 1 1 1 1 1 
1 1 1 1 1 1 1 1 1 
1 1 1 1 1 1 1 1 1 
1 1 1 1 1 1 1 1 1 
1 1 1 1 1 1 1 1 1 
1 1 1 1 1 1 1 1 1 
1 1 1 1 1 1 1 1 1 
1 1 1 1 1 1 1 1 1 
1 1 1 1 1 1 1 1 1 
1 1 1 1 1 1 1 1 1 
1 1 1 1 1 1 1 1 1 
1 1 1 1 1 1 1 1 1 
1 1 1 1 1 1 1 1 1 
1 1 1 1 1 1 1 1 1 
1 1 1 1 1 1 1 1 1 
1 1 1 1 1 1 1 1 1 
1 1 1 1 1 1 1 1 1 
1 1 1 1 1 1 1 1 1 
1 1 1 1 1 1 1 1 1 
1 1 1 1 1 1 1 1 1 
1 1 1 1 1 1 1 1 1 
1 1 1 1 1 1 1 1 1 
1 1 1 1 1 1 1 1 1 
1 1 1 1 1 1 1 1 1 
1 1 1 1 1 1 1 1 1 
1 1 1 1 1 1 1 1 1 
1 1 1 1 1 1 1 1 1 
1 1 1 1 1 1 1 1 1 
1 1 1 1 1 1 1 1 1 
1 1 1 1 1 1 1 1 1 
1 1 1 1 1 1 1 1 1 
1 1 1 1 1 1 1 1 1 
1 1 1 1 1 1 1 1 1 
1 1 1 1 1 1 1 1 1 
1 1 1 1 1 1 1 1 1 
1 1 1 1 1 1 1 1 1 
1 1 1 1 1 1 1 1 1 
1 1 1 1 1 1 1 1 1 
1 1 1 1 1 1 1 1 1 
1 1 1 1 1 1 1 1 1 
1 1 1 1 1 1 1 1 1 
1 1 1 1 1 1 1 1 1 
1 1 1 1 1 1 1 1 1 
1 1 1 1 1 1 1 1 1 
1 1 1 1 1 1 1 1 1 
1 1 1 1 1 1 1 1 1 
1 1 1 1 1 1 1 1 1 
1 1 1 1 1 1 1 1 1 
1 1 1 1 1 1 1 1 1 
1 1 1 1 1 1 1 1 1 
1 1 1 1 1 1 1 1 1 
1 1 1 1 1 1 1 1 1 
1 1 1 1 1 1 1 1 1 
1 1 1 1 1 1 1 1 1 
1 1 1 1 1 1 1 1 1 
1 1 1 1 1 1 1 1 1 
1 1 1 1 1 1 1 1 1 
1 1 1 1 1 1 1 1 1 
1 1 1 1 1 1 1 1 1 
1 1 1 1 1 1 1 1 1 
1 1 1 1 1 1 1 1 1 
1 1 1 1 1 1 1 1 1 
1 1 1 1 1 1 1 1 1 
1 1 1 1 1 1 1 1 1 
1 1 1 1 1 1 1 1 1 
1 1 1 1 1 1 1 1 1 
1 1 1 1 1 1 1 1 1 
1 1 1 1 1 1 1 1 1 
1 1 1 1 1 1 1 1 1 
1 1 1 1 1 1 1 1 1 
1 1 1 1 1 1 1 1 1 
1 1 1 1 1 1 1 1 1 
1 1 1 1 1 1 1 1 1 
1 1 1 1 1 1 1 1 1 
1 1 1 1 1 1 1 1 1 
1 1 1 1 1 1 1 1 1 
1 1 1 1 1 1 1 1 1 
1 1 1 1 1 1 1 1 1 
1 1 1 1 1 1 1 1 1 
1 1 1 1 1 1 1 1 1 
1 1 1 1 1 1 1 1 1 
1 1 1 1 1 1 1 1 1 
1 1 1 1 1 1 1 1 1 
1 1 1 1 1 1 1 1 1 
1 1 1 1 1 1 1 1 1 
1 1 1 1 1 1 1 1 1 
1 1 1 1 1 1 1 1 1 
1 1 1 1 1 1 1 1 1 
1 1 1 1 1 1 1 1 1 
1 1 1 1 1 1 1 1 1 
1 1 1 1 1 1 1 1 1 
1 1 1 1 1 1 1 1 1 
1 1 1 1 1 1 1 1 1 
1 1 1 1 1 1 1 1 1 
1 1 1 1 1 1 1 1 1 
1 1 1 1 1 1 1 1 1 
1 1 1 1 1 1 1 1 1 
1 1 1 1 1 1 1 1 1 
1 1 1 1 1 1 1 1 1 
1 1 1 1 1 1 1 1 1 
1 1 1 1 1 1 1 1 1 
1 1 1 1 1 1 1 1 1 
1 1 1 1 1 1 1 1 1 
1 1 1 1 1 1 1 1 1 
1 1 1 1 1 1 1 1 1 
1 1 1 1 1 1 1 1 1 
1 1 1 1 1 1 1 1 1 
1 1 1 1 1 1 1 1 1 
1 1 1 1 1 1 1 1 1 
1 1 1 1 1 1 1 1 1 
1 1 1 1 1 1 1 1 1 
1 1 1 1 1 1 1 1 1 
1 1 1 1 1 1 1 1 1 
1 1 1 1 1 1 1 1 1 
1 1 1 1 1 1 1 1 1 
1 1 1 1 1 1 1 1 1 
1 1 1 1 1 1 1 1 1 
1 1 1 1 1 1 1 1 1 
1 1 1 1 1 1 1 1 1 
1 1 1 1 1 1 1 1 1 
1 1 1 1 1 1 1 1 1 
1 1 1 1 1 1 1 1 1 
1 1 1 1 1 1 1 1 1 
1 1 1 1 1 1 1 1 1 
1 1 1 1 1 1 1 1 1 
1 1 1 1 1 1 1 1 1 
1 1 1 1 1 1 1 1 1 
1 1 1 1 1 1 1 1 1 
1 1 1 1 1 1 1 1 1 
1 1 1 1 1 1 1 1 1 
1 1 1 1 1 1 1 1 1 
1 1 1 1 1 1 1 1 1 
1 1 1 1 1 1 1 1 1 
1 1 1 1 1 1 1 1 1 
1 1 1 1 1 1 1 1 1 
1 1 1 1 1 1 1 1 1 
1 1 1 1 1 1 1 1 1 
1 1 1 1 1 1 1 1 1 
1 1 1 1 1 1 1 1 1 
1 1 1 1 1 1 1 1 1 
1 1 1 1 1 1 1 1 1 
1 1 1 1 1 1 1 1 1 
1 1 1 1 1 1 1 1 1 
1 1 1 1 1 1 1 1 1 
1 1 1 1 1 1 1 1 1 
1 1 1 1 1 1 1 1 1 
1 1 1 1 1 1 1 1 1 
1 1 1 1 1 1 1 1 1 
1 1 1 1 1 1 1 1 1 
1 1 1 1 1 1 1 1 1 
1 1 1 1 1 1 1 1 1 
1 1 1 1 1 1 1 1 1 
1 1 1 1 1 1 1 1 1 
1 1 1 1 1 1 1 1 1 
1 1 1 1 1 1 1 1 1 
1 1 1 1 1 1 1 1 1 
1 1 1 1 1 1 1 1 1 
1 1 1 1 1 1 1 1 1 
1 1 1 1 1 1 1 1 1 
1 1 1 1 1 1 1 1 1 
1 1 1 1 1 1 1 1 1 
1 1 1 1 1 1 1 1 1 
1 1 1 1 1 1 1 1 1 
1 1 1 1 1 1 1 1 1 
1 1 1 1 1 1 1 1 1 
1 1 1 1 1 1 1 1 1 
1 1 1 1 1 1 1 1 1 
1 1 1 1 1 1 1 1 1 
1 1 1 1 1 1 1 1 1 
1 1 1 1 1 1 1 1 1 
1 1 1 1 1 1 1 1 1 
1 1 1 1 1 1 1 1 1 
1 1 1 1 1 1 1 1 1 
1 1 1 1 1 1 1 1 1 
1 1 1 1 1 1 1 1 1 
1 1 1 1 1 1 1 1 1 
1 1 1 1 1 1 1 1 1 
1 1 1 1 1 1 1 1 1 
1 1 1 1 1 1 1 1 1 
1 1 1 1 1 1 1 1 1 
1 1 1 1 1 1 1 1 1 
1 1 1 1 1 1 1 1 1 
1 1 1 1 1 1 1 1 1 
1 1 1 1 1 1 1 1 1 
1 1 1 1 1 1 1 1 1 
1 1 1 1 1 1 1 1 1 
1 1 1 1 1 1 1 1 1 
1 1 1 1 1 1 1 1 1 
1 1 1 1 1 1 1 1 1 
1 1 1 1 1 1 1 1 1 
1 1 1 1 1 1 1 1 1 
1 1 1 1 1 1 1 1 1 
1 1 1 1 1 1 1 1 1 
1 1 1 1 1 1 1 1 1 
1 1 1 1 1 1 1 1 1 
1 1 1 1 1 1 1 1 1 
1 1 1 1 1 1 1 1 1 
1 1 1 1 1 1 1 1 1 
1 1 1 1 1 1 1 1 1 
1 1 1 1 1 1 1 1 1 
1 1 1 1 1 1 1 1 1 
1 1 1 1 1 1 1 1 1 
1 1 1 1 1 1 1 1 1 
1 1 1 1 1 1 1 1 1 
1 1 1 1 1 1 1 1 1 
1 1 1 1 1 1 1 1 1 
1 1 1 1 1 1 1 1 1 
1 1 1 1 1 1 1 1 1 
1 1 1 1 1 1 1 1 1 
1 1 1 1 1 1 1 1 1 
1 1 1 1 1 1 1 1 1 
1 1 1 1 1 1 1 1 1 
1 1 1 1 1 1 1 1 1 
1 1 1 1 1 1 1 1 1 
1 1 1 1 1 1 1 1 1 
1 1 1 1 1 1 1 1 1 
1 1 1 1 1 1 1 1 1 
1 1 1 1 1 1 1 1 1 
1 1 1 1 1 1 1 1 1 
1 1 1 1 1 1 1 1 1 
1 1 1 1 1 1 1 1 1 
1 1 1 1 1 1 1 1 1 
1 1 1 1 1 1 1 1 1 
1 1 1 1 1 1 1 1 1 
1 1 1 1 1 1 1 1 1 
1 1 1 1 1 1 1 1 1 
1 1 1 1 1 1 1 1 1 
1 1 1 1 1 1 1 1 1 
1 1 1 1 1 1 1 1 1 
1 1 1 1 1 1 1 1 1 
1 1 1 1 1 1 1 1 1 
1 1 1 1 1 1 1 1 1 
1 1 1 1 1 1 1 1 1 
1 1 1 1 1 1 1 1 1 
1 1 1 1 1 1 1 1 1 
1 1 1 1 1 1 1 1 1 
1 1 1 1 1 1 1 1 1 
1 1 1 1 1 1 1 1 1 
1 1 1 1 1 1 1 1 1 
1 1 1 1 1 1 1 1 1 
1 1 1 1 1 1 1 1 1 
1 1 1 1 1 1 1 1 1 
1 1 1 1 1 1 1 1 1 
1 1 1 1 1 1 1 1 1 
1 1 1 1 1 1 1 1 1 
1 1 1 1 1 1 1 1 1 
1 1 1 1 1 1 1 1 1 
1 1 1 1 1 1 1 1 1 
1 1 1 1 1 1 1 1 1 
1 1 1 1 1 1 1 1 1 
1 1 1 1 1 1 1 1 1 
1 1 1 1 1 1 1 1 1 
1 1 1 1 1 1 1 1 1 
1 1 1 1 1 1 1 1 1 
1 1 1 1 1 1 1 1 1 
1 1 1 1 1 1 1 1 1 
1 1 1 1 1 1 1 1 1 
1 1 1 1 1 1 1 1 1 
1 1 1 1 1 1 1 1 1 
1 1 1 1 1 1 1 1 1 
1 1 1 1 1 1 1 1 1 
1 1 1 1 1 1 1 1 1 
1 1 1 1 1 1 1 1 1 
1 1 1 1 1 1 1 1 1 
1 1 1 1 1 1 1 1 1 
1 1 1 1 1 1 1 1 1 
1 1 1 1 1 1 1 1 1 
1 1 1 1 1 1 1 1 1 
1 1 1 1 1 1 1 1 1 
1 1 1 1 1 1 1 1 1 
1 1 1 1 1 1 1 1 1 
1 1 1 1 1 1 1 1 1 
1 1 1 1 1 1 1 1 1 
1 1 1 1 1 1 1 1 1 
1 1 1 1 1 1 1 1 1 
1 1 1 1 1 1 1 1 1 
1 1 1 1 1 1 1 1 1 
1 1 1 1 1 1 1 1 1 
1 1 1 1 1 1 1 1 1 
1 1 1 1 1 1 1 1 1 
1 1 1 1 1 1 1 1 1 
1 1 1 1 1 1 1 1 1 
1 1 1 1 1 1 1 1 1 
1 1 1 1 1 1 1 1 1 
1 1 1 1 1 1 1 1 1 
1 1 1 1 1 1 1 1 1 
1 1 1 1 1 1 1 1 1 
1 1 1 1 1 1 1 1 1 
1 1 1 1 1 1 1 1 1 
1 1 1 1 1 1 1 1 1 
1 1 1 1 1 1 1 1 1 
1 1 1 1 1 1 1 1 1 
1 1 1 1 1 1 1 1 1 
1 1 1 1 1 1 1 1 1 
1 1 1 1 1 1 1 1 1 
1 1 1 1 1 1 1 1 1 
1 1 1 1 1 1 1 1 1 
1 1 1 1 1 1 1 1 1 
1 1 1 1 1 1 1 1 1 
1 1 1 1 1 1 1 1 1 
1 1 1 1 1 1 1 1 1 
1 1 1 1 1 1 1 1 1 
1 1 1 1 1 1 1 1 1 
1 1 1 1 1 1 1 1 1 
1 1 1 1 1 1 1 1 1 
1 1 1 1 1 1 1 1 1 
1 1 1 1 1 1 1 1 1 
1 1 1 1 1 1 1 1 1 
1 1 1 1 1 1 1 1 1 
1 1 1 1 1 1 1 1 1 
1 1 1 1 1 1 1 1 1 
1 1 1 1 1 1 1 1 1 
1 1 1 1 1 1 1 1 1 
1 1 1 1 1 1 1 1 1 
1 1 1 1 1 1 1 1 1 
1 1 1 1 1 1 1 1 1 
1 1 1 1 1 1 1 1 1 
1 1 1 1 1 1 1 1 1 
1 1 1 1 1 1 1 1 1 
1 1 1 1 1 1 1 1 1 
1 1 1 1 1 1 1 1 1 
1 1 1 1 1 1 1 1 1 
1 1 1 1 1 1 1 1 1 
1 1 1 1 1 1 1 1 1 
1 1 1 1 1 1 1 1 1 
1 1 1 1 1 1 1 1 1 
1 1 1 1 1 1 1 1 1 
1 1 1 1 1 1 1 1 1 
1 1 1 1 1 1 1 1 1 
1 1 1 1 1 1 1 1 1 
1 1 1 1 1 1 1 1 1 
1 1 1 1 1 1 1 1 1 
1 1 1 1 1 1 1 1 1 
1 1 1 1 1 1 1 1 1 
1 1 1 1 1 1 1 1 1 
1 1 1 1 1 1 1 1 1 
1 1 1 1 1 1 1 1 1 
1 1 1 1 1 1 1 1 1 
1 1 1 1 1 1 1 1 1 
1 1 1 1 1 1 1 1 1 
1 1 1 1 1 1 1 1 1 
1 1 1 1 1 1 1 1 1 
1 1 1 1 1 1 1 1 1 
1 1 1 1 1 1 1 1 1 
1 1 1 1 1 1 1 1 1 
1 1 1 1 1 1 1 1 1 
1 1 1 1 1 1 1 1 1 
1 1 1 1 1 1 1 1 1 
1 1 1 1 1 1 1 1 1 
1 1 1 1 1 1 1 1 1 
1 1 1 1 1 1 1 1 1 
1 1 1 1 1 1 1 1 1 
1 1 1 1 1 1 1 1 1 
1 1 1 1 1 1 1 1 1 
1 1 1 1 1 1 1 1 1 
1 1 1 1 1 1 1 1 1 
1 1 1 1 1 1 1 1 1 
1 1 1 1 1 1 1 1 1 
1 1 1 1 1 1 1 1 1 
1 1 1 1 1 1 1 1 1 
1 1 1 1 1 1 1 1 1 
1 1 1 1 1 1 1 1 1 
1 1 1 1 1 1 1 1 1 
1 1 1 1 1 1 1 1 1 
1 1 1 1 1 1 1 1 1 
1 1 1 1 1 1 1 1 1 
1 1 1 1 1 1 1 1 1 
1 1 1 1 1 1 1 1 1 
1 1 1 1 1 1 1 1 1 
1 1 1 1 1 1 1 1 1 
1 1 1 1 1 1 1 1 1 
1 1 1 1 1 1 1 1 1 
1 1 1 1 1 1 1 1 1 
1 1 1 1 1 1 1 1 1 
1 1 1 1 1 1 1 1 1 
1 1 1 1 1 1 1 1 1 
1 1 1 1 1 1 1 1 1 
1 1 1 1 1 1 1 1 1 
1 1 1 1 1 1 1 1 1 
1 1 1 1 1 1 1 1 1 
1 1 1 1 1 1 1 1 1 
1 1 1 1 1 1 1 1 1 
1 1 1 1 1 1 1 1 1 
1 1 1 1 1 1 1 1 1 
1 1 1 1 1 1 1 1 1 
1 1 1 1 1 1 1 1 1 
1 1 1 1 1 1 1 1 1 
1 1 1 
NORMALS normals float
0 0 -1 0 -0.999942 -0.0107521 -0.703315 0 -0.710878 
0.575281 -0.575281 -0.581467 -0.575281 0.575281 -0.581467 0.57112 -0.577328 -0.583536 
-0.579398 0.573234 -0.579398 -0.0106377 0 -0.999943 0 0 -1 
0 -0.703315 -0.710878 0.0106377 0 -0.999943 0.00756232 -0.703295 -0.710858 
0.579398 -0.573234 -0.579398 -0.00756232 0.703295 -0.710858 0 0.703315 -0.710878 
-0.57112 0.577328 -0.583536 0.573234 -0.579398 -0.579398 -0.577328 0.57112 -0.583536 
0 -0.0106377 -0.999943 0.573234 -0.579398 -0.579398 -0.0106371 0.0106371 -0.999887 
-0.707087 0.0075222 -0.707087 0.579398 -0.573234 -0.579398 0.0106377 0 -0.999943 
0.579398 -0.573234 -0.579398 -0.0075222 0.707087 -0.707087 -0.57112 0.577328 -0.583536 
0.573234 -0.579398 -0.579398 -0.577328 0.57112 -0.583536 0 -0.0106377 -0.999943 
0.573234 -0.579398 -0.579398 -0.0106371 0.0106371 -0.999887 -0.707087 0.0075222 -0.707087 
0.579398 -0.573234 -0.579398 0.0106377 0 -0.999943 0.579398 -0.573234 -0.579398 
-0.0075222 0.707087 -0.707087 -0.57112 0.577328 -0.583536 0.573234 -0.579398 -0.579398 
-0.577328 0.57112 -0.583536 0 -0.0106377 -0.999943 0.703295 -0.00756232 -0.710858 
0 0 -1 -0.703315 0 -0.710878 0.703315 0 -0.710878 
0 0 -1 -0.703315 0 -0.710878 0.575281 -0.575281 -0.581467 
-0.0106371 0.0106371 -0.999887 -0.707087 0.0075222 -0.707087 0.575281 -0.575281 -0.581467 
0 0 -1 0.0106371 -0.0106371 -0.999887 0.0075222 -0.707087 -0.707087 
0.707087 -0.0075222 -0.707087 -0.0075222 0.707087 -0.707087 -0.575281 0.575281 -0.581467 
-0.575281 0.575281 -0.581467 0 0 -1 0.575281 -0.575281 -0.581467 
-0.0106371 0.0106371 -0.999887 -0.707087 0.0075222 -0.707087 0.579398 -0.573234 -0.579398 
0.0106377 0 -0.999943 0.707107 0 -0.707107 -0.0075222 0.707087 -0.707087 
0.00756232 0.703295 -0.710858 0 -0.0106377 -0.999943 0 -0.707107 -0.707107 
-0.703295 -0.00756232 -0.710858 0.999884 -0.0107514 -0.0107514 0 0 -1 
-0.703315 0 -0.710878 0.703315 0 -0.710878 0 0 -1 
-0.703315 0 -0.710878 0.703315 0 -0.710878 0 0 -1 
-0.703315 0 -0.710878 0.575281 -0.575281 -0.581467 -0.0106371 0.0106371 -0.999887 
-0.707087 0.0075222 -0.707087 0.579398 -0.573234 -0.579398 0.0106377 0 -0.999943 
0.579398 -0.573234 -0.579398 -0.0075222 0.707087 -0.707087 -0.57112 0.577328 -0.583536 
0.573234 -0.579398 -0.579398 -0.577328 0.57112 -0.583536 0 -0.0106377 -0.999943 
0.703295 -0.00756232 -0.710858 0 0 -1 -0.703315 0 -0.710878 
0.703315 0 -0.710878 0 0 -1 -0.703315 0 -0.710878 
0.703315 0 -0.710878 0 0 -1 -0.703315 0 -0.710878 
0.703315 0 -0.710878 0 0.0106377 -0.999943 -0.577328 -0.57112 -0.583536 
0.703295 0.00756232 -0.710858 -0.0106371 -0.0106371 -0.999887 -0.0075222 -0.707087 -0.707087 
-0.707087 -0.0075222 -0.707087 0.0106377 0 -0.999943 -0.57112 -0.577328 -0.583536 
0.573234 0.579398 -0.579398 0.579398 0.573234 -0.579398 0 0 -1 
-0.703315 0 -0.710878 0.575281 0.575281 -0.581467 0.579398 0.573234 -0.579398 
0 0 -1 -0.703315 0 -0.710878 0.703315 0 -0.710878 
0 0 -1 -0.703315 0 -0.710878 0.703315 0 -0.710878 
0 0 -1 -0.703315 0 -0.710878 0.703315 0 -0.710878 
0 0.0106377 -0.999943 -0.577328 -0.57112 -0.583536 0.703295 0.00756232 -0.710858 
0 0 -1 -0.575281 -0.575281 -0.581467 -0.999942 0 -0.0107521 
0.573234 0.579398 -0.579398 0.575281 0.575281 -0.581467 0 0.703315 -0.710878 
-0.0106371 -0.0106371 -0.999887 -0.0075222 -0.707087 -0.707087 -0.707087 -0.0075222 -0.707087 
0.0106377 0 -0.999943 0.0107514 -0.999884 -0.0107514 0.999943 0 -0.0106377 
0 0.0106377 -0.999943 -0.999884 0.0107514 -0.0107514 0.573234 0.579398 -0.579398 