# vtk DataFile Version 3.0
vtk output
ASCII
DATASET POLYDATA
POINTS 988 float
70 89 23.0093 70 88.0093 24 69.0093 89 24 
70.9907 89 24 69 90 23.0093 69 89.0093 24 
68.0093 90 24 70 90 23.0093 71 89.0093 24 
71 90 23.0093 72 90 23.0093 72 89.0093 24 
73 90 23.0093 73 89.0093 24 74 90 23.0093 
74 89.0093 24 74.9907 90 24 68 91 23.0093 
68 90.0093 24 67.0093 91 24 69 91 23.0093 
70 91 23.0093 71 91 23.0093 72 91 23.0093 
73 91 23.0093 73.9907 91 24 74 90.9907 24 
63 92 23.0093 63 91.0093 24 62.0093 92 24 
64 92 23.0093 64 91.0093 24 65 92 23.0093 
65 91.0093 24 66 92 23.0093 66 91.0093 24 
67 92 23.0093 67 91.0093 24 68 92 23.0093 
68.9907 92 24 69 91.9907 24 70 91.9907 24 
71 91.9907 24 72 91.9907 24 73 91.9907 24 
63 93 23.0093 62.0093 93 24 64 93 23.0093 
65 93 23.0093 66 93 23.0093 67 93 23.0093 
67.9907 93 24 68 92.9907 24 63 93.9907 24 
64 93.9907 24 65 93.9907 24 66 93.9907 24 
67 93.9907 24 70 88 24.0093 70 87.0093 25 
69.0093 88 25 70.9907 88 25 68 89 24.0093 
68 88.0093 25 67.0093 89 25 69 89 24.0093 
69 88.0093 25 71 89 24.0093 71 88.0093 25 
72 89 24.0093 72 88.0093 25 73 89 24.0093 
73 88.0093 25 74 89 24.0093 74 88.0093 25 
75 89 24.0093 75 88.0093 25 75.9907 89 25 
68 90 24.0093 67.0093 90 25 75 89.9907 25 
74.9907 90 25 64 91 24.0093 64 90.0093 25 
63.0093 91 25 65 91 24.0093 65 90.0093 25 
66 91 24.0093 66 90.0093 25 67 91 24.0093 
67 90.0093 25 74 91 24.0093 74.9907 91 25 
62 92 24.0093 62 91.0093 25 61.0093 92 25 
63 91.0093 25 68.9907 92 25 69 91.9907 25 
70 91.9907 25 71 91.9907 25 72 91.9907 25 
73 91.9907 25 74 91.9907 25 62 92.9907 25 
62.0093 93 25 68 93 24.0093 68.9907 93 25 
63 93.9907 25 64 93.9907 25 65 93.9907 25 
66 93.9907 25 67 93.9907 25 68 93.9907 25 
67 88 25.0093 67 87.0093 26 66.0093 88 26 
68 88 25.0093 68 87.0093 26 69 88 25.0093 
69 87.0093 26 70 87.0093 26 71 88 25.0093 
71 87.0093 26 72 88 25.0093 72 87.0093 26 
73 88 25.0093 73 87.0093 26 74 88 25.0093 
74 87.0093 26 75 88 25.0093 75 87.0093 26 
76 88 25.0093 76 87.0093 26 76.9907 88 26 
66 89 25.0093 66 88.0093 26 65.0093 89 26 
67 89 25.0093 76 89 25.0093 76.9907 89 26 
65 90 25.0093 65 89.0093 26 64.0093 90 26 
66 90 25.0093 67 90 25.0093 75 90 25.0093 
76 90 25.0093 76.9907 90 26 64 90.0093 26 
63.0093 91 26 75 91 25.0093 75.9907 91 26 
76 90.9907 26 61 92 25.0093 61 91.0093 26 
60.0093 92 26 62 91.0093 26 63 91.0093 26 
69 92 25.0093 70 92 25.0093 71 92 25.0093 
72 92 25.0093 73 92 25.0093 74 92 25.0093 
74.9907 92 26 75 91.9907 26 61 93 25.0093 
60.0093 93 26 62 93 25.0093 69 93 25.0093 
70 93 25.0093 71 93 25.0093 72 93 25.0093 
73 93 25.0093 73.9907 93 26 74 92.9907 26 
61 93.9907 26 62 93.9907 26 63 94 25.0093 
62.0093 94 26 64 94 25.0093 65 94 25.0093 
66 94 25.0093 67 94 25.0093 68 94 25.0093 
68.9907 94 26 69 93.9907 26 70 93.9907 26 
71 93.9907 26 72 93.9907 26 73 93.9907 26 
63 95 25.0093 62.0093 95 26 64 95 25.0093 
65 95 25.0093 66 95 25.0093 67 95 25.0093 
67.9907 95 26 68 94.9907 26 63 95.9907 26 
64 95.9907 26 65 95.9907 26 66 95.9907 26 
67 95.9907 26 66 87 26.0093 66 86.0093 27 
65.0093 87 27 67 87 26.0093 67 86.0093 27 
68 87 26.0093 68 86.0093 27 69 87 26.0093 
69 86.0093 27 70 87 26.0093 70 86.0093 27 
71 87 26.0093 71 86.0093 27 72 87 26.0093 
72 86.0093 27 73 87 26.0093 73 86.0093 27 
74 87 26.0093 74 86.0093 27 75 87 26.0093 
75 86.0093 27 76 87 26.0093 76 86.0093 27 
76.9907 87 27 66 88 26.0093 65.0093 88 27 
76.9907 88 27 65 89 26.0093 65 88.0093 27 
64.0093 89 27 76.9907 89 27 64 90 26.0093 
64 89.0093 27 63.0093 90 27 76.9907 90 27 
61 91 26.0093 61 90.0093 27 60.0093 91 27 
62 91 26.0093 62 90.0093 27 63 91 26.0093 
63 90.0093 27 75.9907 91 27 76 90.9907 27 
60 92 26.0093 60 91.0093 27 59.0093 92 27 
74.9907 92 27 75 91.9907 27 59 93 26.0093 
59 92.0093 27 58.0093 93 27 60 93 26.0093 
73.9907 93 27 74 92.9907 27 59 93.9907 27 
60 93.9907 27 61 93.9907 27 62 94 26.0093 
61.0093 94 27 68.9907 94 27 69 93.9907 27 
70 93.9907 27 71 93.9907 27 72 93.9907 27 
73 93.9907 27 62 94.9907 27 62.0093 95 27 
68 95 26.0093 68.9907 95 27 63 95.9907 27 
64 95.9907 27 65 95.9907 27 66 95.9907 27 
67 95.9907 27 68 95.9907 27 67 86 27.0093 
67 85.0093 28 66.0093 86 28 68 86 27.0093 
68 85.0093 28 69 86 27.0093 69 85.0093 28 
70 86 27.0093 70 85.0093 28 71 86 27.0093 
71 85.0093 28 72 86 27.0093 72 85.0093 28 
73 86 27.0093 73 85.0093 28 74 86 27.0093 
74 85.0093 28 75 86 27.0093 75 85.0093 28 
76 86 27.0093 76 85.0093 28 76.9907 86 28 
66 86.0093 28 65.0093 87 28 76.9907 87 28 
65 88 27.0093 65 87.0093 28 64.0093 88 28 
76.9907 88 28 64 89 27.0093 64 88.0093 28 
63.0093 89 28 76.9907 89 28 61 90 27.0093 
61 89.0093 28 60.0093 90 28 62 90 27.0093 
62 89.0093 28 63 90 27.0093 63 89.0093 28 
76.9907 90 28 60 91 27.0093 60 90.0093 28 
59.0093 91 28 75.9907 91 28 76 90.9907 28 
59 92 27.0093 59 91.0093 28 58.0093 92 28 
74.9907 92 28 75 91.9907 28 58 93 27.0093 
58 92.0093 28 57.0093 93 28 74 93 27.0093 
74.9907 93 28 58 93.9907 28 59 94 27.0093 
58.0093 94 28 60 94 27.0093 61 94 27.0093 
69 94 27.0093 70 94 27.0093 71 94 27.0093 
72 94 27.0093 73 94 27.0093 74 94 27.0093 
74.9907 94 28 59 95 27.0093 58.0093 95 28 
60 95 27.0093 61 95 27.0093 62 95 27.0093 
69 95 27.0093 70 95 27.0093 71 95 27.0093 
72 95 27.0093 73 95 27.0093 73.9907 95 28 
74 94.9907 28 59 95.9907 28 60 95.9907 28 
61 95.9907 28 62 95.9907 28 63 96 27.0093 
62.0093 96 28 64 96 27.0093 65 96 27.0093 
66 96 27.0093 67 96 27.0093 68 96 27.0093 
69 96 27.0093 70 96 27.0093 71 96 27.0093 
72 96 27.0093 72.9907 96 28 73 95.9907 28 
63 97 27.0093 62.0093 97 28 64 97 27.0093 
65 97 27.0093 66 97 27.0093 67 97 27.0093 
68 97 27.0093 69 97 27.0093 70 97 27.0093 
71 97 27.0093 71.9907 97 28 72 96.9907 28 
63 97.9907 28 64 97.9907 28 64.0093 98 28 
65 98 27.0093 66 98 27.0093 66.9907 98 28 
67 97.9907 28 68 97.9907 28 69 97.9907 28 
70 97.9907 28 71 97.9907 28 65 99 27.0093 
64.0093 99 28 65.9907 99 28 66 98.9907 28 
65 99.9907 28 66 84 28.0093 66 83.0093 29 
65.0093 84 29 66.9907 84 29 66 85 28.0093 
65.0093 85 29 67 84.0093 29 67 85 28.0093 
68 85 28.0093 68 84.0093 29 69 85 28.0093 
69 84.0093 29 70 85 28.0093 70 84.0093 29 
71 85 28.0093 71 84.0093 29 72 85 28.0093 
72 84.0093 29 73 85 28.0093 73 84.0093 29 
74 85 28.0093 74 84.0093 29 75 85 28.0093 
75 84.0093 29 76 85 28.0093 76 84.0093 29 
76.9907 85 29 66 86 28.0093 65.0093 86 29 
76.9907 86 29 64 87 28.0093 64 86.0093 29 
63.0093 87 29 65 87 28.0093 65 86.0093 29 
76.9907 87 29 64 88 28.0093 63.0093 88 29 
76.9907 88 29 61 89 28.0093 61 88.0093 29 
60.0093 89 29 62 89 28.0093 62 88.0093 29 
63 89 28.0093 63 88.0093 29 76 89 28.9907 
75.9907 89 29 76 88.9907 29 60 90 28.0093 
60 89.0093 29 59.0093 90 29 76 90 28.9907 
75.9907 90 29 59 91 28.0093 59 90.0093 29 
58.0093 91 29 75 91 28.9907 74.9907 91 29 
75 90.9907 29 58.0093 92 29 74.9907 92 29 
58 92.0093 29 57.0093 93 29 74.9907 93 29 
58 93.9907 29 58.0093 94 29 74.9907 94 29 
58.0093 95 29 73.9907 95 29 74 94.9907 29 
59 95.9907 29 60 95.9907 29 61 95.9907 29 
62 96 28.0093 61.0093 96 29 72.9907 96 29 
73 95.9907 29 62 96.9907 29 62.0093 97 29 
71.9907 97 29 72 96.9907 29 63 97.9907 29 
64 97.9907 29 64.0093 98 29 66.9907 98 29 
67 97.9907 29 68 97.9907 29 69 97.9907 29 
70 97.9907 29 71 97.9907 29 64.0093 99 29 
65.9907 99 29 66 98.9907 29 65 99.9907 29 
69 82 29.0093 69 81.0093 30 68.0093 82 30 
70 82 29.0093 70 81.0093 30 70.9907 82 30 
68 83 29.0093 68 82.0093 30 67.0093 83 30 
69 83 29.0093 70 83 29.0093 70.9907 83 30 
63 84 29.0093 63 83.0093 30 62.0093 84 30 
64 84 29.0093 64 83.0093 30 65 84 29.0093 
65 83.0093 30 66 83.0093 30 67 84 29.0093 
67 83.0093 30 68 84 29.0093 69 84 29.0093 
70 84 29.0093 71 83.0093 30 71 84 29.0093 
72 84 29.0093 72 83.0093 30 73 84 29.0093 
73 83.0093 30 74 84 29.0093 74 83.0093 30 
75 84 29.0093 75 83.0093 30 76 84 29.0093 
76 83.0093 30 76.9907 84 30 63 85 29.0093 
62.0093 85 30 64 85 29.0093 65 85 29.0093 
76.9907 85 30 63 86 29.0093 62.0093 86 30 
64 86 29.0093 65 86 29.0093 76.9907 86 30 
62 87 29.0093 62 86.0093 30 61.0093 87 30 
63 87 29.0093 76.9907 87 30 62 87.9907 30 
62.0093 88 30 63 88 29.0093 76.9907 88 30 
61 89 29.9907 61.0093 89 30 62 88.0093 30 
75.9907 89 30 76 88.9907 30 60 90 29.9907 
60.0093 90 30 61 89.0093 30 75 90 29.9907 
74.9907 90 30 75 89.9907 30 59 91 29.9907 
59.0093 91 30 60 90.0093 30 74.9907 91 30 
59 91.0093 30 58.0093 92 30 74.9907 92 30 
58 92.0093 30 57.0093 93 30 74.9907 93 30 
58 93.9907 30 58.0093 94 30 74.9907 94 30 
58.0093 95 30 73.9907 95 30 74 94.9907 30 
59 95.9907 30 60 95.9907 30 61 96 29.0093 
60.0093 96 30 72.9907 96 30 73 95.9907 30 
61 97 29.0093 60.0093 97 30 62 97 29.0093 
71.9907 97 30 72 96.9907 30 61 97.9907 30 
62 97.9907 30 63 97.9907 30 64 97.9907 30 
64.0093 98 30 66.9907 98 30 67 97.9907 30 
68 97.9907 30 69 97.9907 30 70 97.9907 30 
71 97.9907 30 64.0093 99 30 65.9907 99 30 
66 98.9907 30 65 99.9907 30 69 81.0093 31 
68.0093 82 31 70 82 30.9907 69.9907 82 31 
68 83 30.9907 68.0093 83 31 70 83 30.9907 
69.9907 83 31 63 83.0093 31 62.0093 84 31 
64 83.0093 31 65 83.0093 31 66 83.0093 31 
67 83.0093 31 68 83.0093 31 70 83.0093 31 
71 83.0093 31 72 83.0093 31 73 83.0093 31 
74 83.0093 31 75 83.0093 31 76 84 30.9907 
75.9907 84 31 62.0093 85 31 76 85 30.9907 
75.9907 85 31 62.0093 86 31 76 86 30.9907 
75.9907 86 31 62 87 30.9907 62.0093 87 31 
76 87 30.9907 75.9907 87 31 62.0093 88 31 
76 88 30.9907 75.9907 88 31 62 88.0093 31 
61.0093 89 31 74 89 30.9907 73.9907 89 31 
74 88.9907 31 75 88.9907 31 75 89 30.9907 
61 89.0093 31 60.0093 90 31 74 90 30.9907 
73.9907 90 31 60 90.0093 31 59.0093 91 31 
74 91 30.9907 73.9907 91 31 59 91.0093 31 
58.0093 92 31 74 92 30.9907 73.9907 92 31 
58 92.0093 31 57.0093 93 31 74 93 30.9907 
73.9907 93 31 58 94 30.0093 57.0093 94 31 
74 94 30.9907 73.9907 94 31 58 94.9907 31 
58.0093 95 31 72 95 30.9907 71.9907 95 31 
72 94.9907 31 73 94.9907 31 73 95 30.9907 
59 95.9907 31 60 95.9907 31 60.0093 96 31 
72 96 30.9907 71.9907 96 31 60.0093 97 31 
70 97 30.9907 69.9907 97 31 70 96.9907 31 
[...]
POINT_DATA 988
SCALARS scalars float
LOOKUP_TABLE default
1 1 1 1 1 1 1 1 1 
1 1 1 1 1 1 1 1 1 
1 1 1 1 1 1 1 1 1 
1 1 1 1 1 1 1 1 1 
1 1 1 1 1 1 1 1 1 
1 1 1 1 1 1 1 1 1 
1 1 1 1 1 1 1 1 1 
1 1 1 1 1 1 1 1 1 
1 1 1 1 1 1 1 1 1 
1 1 1 1 1 1 1 1 1 
1 1 1 1 1 1 1 1 1 
1 1 1 1 1 1 1 1 1 
1 1 1 1 1 1 1 1 1 
1 1 1 1 1 1 1 1 1 
1 1 1 1 1 1 1 1 1 
1 1 1 1 1 1 1 1 1 
1 1 1 1 1 1 1 1 1 
1 1 1 1 1 1 1 1 1 
1 1 1 1 1 1 1 1 1 
1 1 1 1 1 1 1 1 1 
1 1 1 1 1 1 1 1 1 
1 1 1 1 1 1 1 1 1 
1 1 1 1 1 1 1 1 1 
1 1 1 1 1 1 1 1 1 
1 1 1 1 1 1 1 1 1 
1 1 1 1 1 1 1 1 1 
1 1 1 1 1 1 1 1 1 
1 1 1 1 1 1 1 1 1 
1 1 1 1 1 1 1 1 1 
1 1 1 1 1 1 1 1 1 
1 1 1 1 1 1 1 1 1 
1 1 1 1 1 1 1 1 1 
1 1 1 1 1 1 1 1 1 
1 1 1 1 1 1 1 1 1 
1 1 1 1 1 1 1 1 1 
1 1 1 1 1 1 1 1 1 
1 1 1 1 1 1 1 1 1 
1 1 1 1 1 1 1 1 1 
1 1 1 1 1 1 1 1 1 
1 1 1 1 1 1 1 1 1 
1 1 1 1 1 1 1 1 1 
1 1 1 1 1 1 1 1 1 
1 1 1 1 1 1 1 1 1 
1 1 1 1 1 1 1 1 1 
1 1 1 1 1 1 1 1 1 
1 1 1 1 1 1 1 1 1 
1 1 1 1 1 1 1 1 1 
1 1 1 1 1 1 1 1 1 
1 1 1 1 1 1 1 1 1 
1 1 1 1 1 1 1 1 1 
1 1 1 1 1 1 1 1 1 
1 1 1 1 1 1 1 1 1 
1 1 1 1 1 1 1 1 1 
1 1 1 1 1 1 1 1 1 
1 1 1 1 1 1 1 1 1 
1 1 1 1 1 1 1 1 1 
1 1 1 1 1 1 1 1 1 
1 1 1 1 1 1 1 1 1 
1 1 1 1 1 1 1 1 1 
1 1 1 1 1 1 1 1 1 
1 1 1 1 1 1 1 1 1 
1 1 1 1 1 1 1 1 1 
1 1 1 1 1 1 1 1 1 
1 1 1 1 1 1 1 1 1 
1 1 1 1 1 1 1 1 1 
1 1 1 1 1 1 1 1 1 
1 1 1 1 1 1 1 1 1 
1 1 1 1 1 1 1 1 1 
1 1 1 1 1 1 1 1 1 
1 1 1 1 1 1 1 1 1 
1 1 1 1 1 1 1 1 1 
1 1 1 1 1 1 1 1 1 
1 1 1 1 1 1 1 1 1 
1 1 1 1 1 1 1 1 1 
1 1 1 1 1 1 1 1 1 
1 1 1 1 1 1 1 1 1 
1 1 1 1 1 1 1 1 1 
1 1 1 1 1 1 1 1 1 
1 1 1 1 1 1 1 1 1 
1 1 1 1 1 1 1 1 1 
1 1 1 1 1 1 1 1 1 
1 1 1 1 1 1 1 1 1 
1 1 1 1 1 1 1 1 1 
1 1 1 1 1 1 1 1 1 
1 1 1 1 1 1 1 1 1 
1 1 1 1 1 1 1 1 1 
1 1 1 1 1 1 1 1 1 
1 1 1 1 1 1 1 1 1 
1 1 1 1 1 1 1 1 1 
1 1 1 1 1 1 1 1 1 
1 1 1 1 1 1 1 1 1 
1 1 1 1 1 1 1 1 1 
1 1 1 1 1 1 1 1 1 
1 1 1 1 1 1 1 1 1 
1 1 1 1 1 1 1 1 1 
1 1 1 1 1 1 1 1 1 
1 1 1 1 1 1 1 1 1 
1 1 1 1 1 1 1 1 1 
1 1 1 1 1 1 1 1 1 
1 1 1 1 1 1 1 1 1 
1 1 1 1 1 1 1 1 1 
1 1 1 1 1 1 1 1 1 
1 1 1 1 1 1 1 1 1 
1 1 1 1 1 1 1 1 1 
1 1 1 1 1 1 1 1 1 
1 1 1 1 1 1 1 1 1 
1 1 1 1 1 1 1 1 1 
1 1 1 1 1 1 1 1 1 
1 1 1 1 1 1 1 1 1 
1 1 1 1 1 1 1 
NORMALS normals float
0 -0.00934539 -0.999956 0 -0.707107 -0.707107 -0.573736 -0.579149 -0.579149 
0.573736 -0.579149 -0.579149 -0.00934498 -0.00934498 -0.999913 -0.57735 -0.57735 -0.57735 
-0.57735 -0.57735 -0.57735 0 0 -1 0.573736 -0.579149 -0.579149 
0 -0.00934539 -0.999956 0 -0.00934539 -0.999956 0 -0.707107 -0.707107 
0 -0.00934539 -0.999956 0 -0.707107 -0.707107 0.00934539 0 -0.999956 
0.00663928 -0.703764 -0.710403 0.999956 0 -0.00934539 -0.00934498 -0.00934498 -0.999913 
-0.57735 -0.57735 -0.57735 -0.57735 -0.57735 -0.57735 0 0.00934539 -0.999956 
0 0.00934539 -0.999956 0 0.00934539 -0.999956 0 0.00934539 -0.999956 
0.00934498 0.00934498 -0.999913 0.57735 0.57735 -0.57735 0.579149 0.573736 -0.579149 
-0.00934498 -0.00934498 -0.999913 -0.00934498 -0.999913 -0.00934498 -0.707091 -0.00660833 -0.707091 
0 -0.00934539 -0.999956 0 -0.707107 -0.707107 0 -0.00934539 -0.999956 
0 -0.707107 -0.707107 0 -0.00934539 -0.999956 0 -0.707107 -0.707107 
0 -0.00934539 -0.999956 -0.573736 -0.579149 -0.579149 0.00934498 0.00934498 -0.999913 
0.707091 0.707091 -0.00660833 0.703764 0.710403 -0.00663928 0 0.999956 -0.00934539 
0 0.999956 -0.00934539 0 0.999956 -0.00934539 0.00934498 0.999913 -0.00934498 
-0.00934498 0.00934498 -0.999913 -0.999913 0.00934498 -0.00934498 0 0.00934539 -0.999956 
0 0.00934539 -0.999956 0 0.00934539 -0.999956 0.00934498 0.00934498 -0.999913 
0.57735 0.57735 -0.57735 0.57735 0.57735 -0.57735 -0.00934498 0.999913 -0.00934498 
0 0.999956 -0.00934539 0 0.999956 -0.00934539 0 0.999956 -0.00934539 
0.00934498 0.999913 -0.00934498 0 -0.707107 -0.707107 0 -0.999956 -0.00934539 
-0.573736 -0.579149 -0.579149 0.573736 -0.579149 -0.579149 -0.00934498 -0.00934498 -0.999913 
-0.00660833 -0.707091 -0.707091 -0.707091 -0.00660833 -0.707091 -0.573736 -0.579149 -0.579149 
-0.573736 -0.579149 -0.579149 0.573736 -0.579149 -0.579149 0.573736 -0.579149 -0.579149 
0 -0.707107 -0.707107 0 -0.707107 -0.707107 0 -0.707107 -0.707107 
0 -0.707107 -0.707107 0 -0.707107 -0.707107 0 -0.707107 -0.707107 
0.00934539 0 -0.999956 0.00663928 -0.703764 -0.710403 0.707107 0 -0.707107 
-0.579149 -0.573736 -0.579149 -0.579149 -0.573736 -0.579149 0.579149 0.573736 -0.579149 
0.580964 0.575535 -0.575535 -0.00660833 -0.707091 -0.707091 -0.00934498 -0.999913 -0.00934498 
-0.707091 -0.707091 -0.00660833 0 -0.707107 -0.707107 0 -0.707107 -0.707107 
0 -0.707107 -0.707107 0 -0.707107 -0.707107 -0.573736 -0.579149 -0.579149 
-0.573736 -0.579149 -0.579149 0.57735 0.57735 -0.57735 0.707091 0.00660833 -0.707091 
-0.707107 0 -0.707107 -0.00943312 -0.999911 -0.00943312 -0.707107 0 -0.707107 
-0.703779 -0.710419 0 0.580964 0.575535 -0.575535 0.575535 0.580964 -0.575535 
0 0.710419 -0.703779 0 0.710419 -0.703779 0 0.710419 -0.703779 
0 0.710419 -0.703779 0.00660833 0.707091 -0.707091 -0.579149 0.573736 -0.579149 
-0.579149 0.579149 -0.573736 0.57735 0.57735 -0.57735 0.707091 0.00660833 -0.707091 
-0.00663928 0.710403 -0.703764 0 0.710419 -0.703779 0 0.710419 -0.703779 
0 0.710419 -0.703779 0 0.710419 -0.703779 0.00660833 0.707091 -0.707091 
-0.00934498 -0.00934498 -0.999913 -0.00660833 -0.707091 -0.707091 -0.57735 -0.57735 -0.57735 
0 -0.707107 -0.707107 0 -0.707107 -0.707107 -0.573736 -0.579149 -0.579149 
0 -0.707107 -0.707107 0 -0.710419 -0.703779 0.573736 -0.579149 -0.579149 
0 -0.707107 -0.707107 0 -0.707107 -0.707107 0 -0.707107 -0.707107 
0 -0.707107 -0.707107 0 -0.707107 -0.707107 0 -0.707107 -0.707107 
0 -0.707107 -0.707107 0 -0.707107 -0.707107 0 -0.707107 -0.707107 
0.00934498 -0.00934498 -0.999913 0.00660833 -0.707091 -0.707091 0.999913 -0.00934498 -0.00934498 
-0.00934498 -0.00934498 -0.999913 -0.57735 -0.57735 -0.57735 -0.57735 -0.57735 -0.57735 
-0.703779 0 -0.710419 0.707107 0 -0.707107 0.999956 0 -0.00934539 
-0.00660833 -0.707091 -0.707091 -0.57735 -0.57735 -0.57735 -0.57735 -0.57735 -0.57735 
0 -0.703779 -0.710419 -0.575535 -0.575535 -0.580964 0.575535 0.575535 -0.580964 
0.00934498 0.00934498 -0.999913 0.999913 0.00934498 -0.00934498 -0.579149 -0.579149 -0.573736 
-0.579149 -0.579149 -0.573736 0.707091 0.00660833 -0.707091 0.707091 0.707091 -0.00660833 
0.707091 0.707091 -0.00660833 -0.707091 -0.00660833 -0.707091 -0.00660833 -0.707091 -0.707091 
-0.707091 -0.00660833 -0.707091 0 -0.710419 -0.703779 -0.575535 -0.580964 -0.575535 
0.575535 0.575535 -0.580964 0 0.703779 -0.710419 0 0.703779 -0.710419 
0 0.703779 -0.710419 0 0.703779 -0.710419 0.00660833 0.707091 -0.707091 
0.707091 0.707091 -0.00660833 0.707091 0.707091 -0.00660833 -0.00934498 0.00934498 -0.999913 
-0.707091 0.00660833 -0.707091 -0.573736 0.579149 -0.579149 0.703764 0.00663928 -0.710403 
0 0.00934539 -0.999956 0 0.00934539 -0.999956 0 0.00934539 -0.999956 
0.00934498 0.00934498 -0.999913 0.707091 0.707091 -0.00660833 0.707091 0.707091 -0.00660833 
-0.00934498 0.999913 -0.00934498 -0.573736 0.579149 -0.579149 -0.00663928 0.703764 -0.710403 
-0.579149 0.573736 -0.579149 0 0.703779 -0.710419 0 0.703779 -0.710419 
0 0.703779 -0.710419 0 0.703779 -0.710419 0.00660833 0.707091 -0.707091 
0.707091 0.707091 -0.00660833 0.703764 0.710403 -0.00663928 0 0.999956 -0.00934539 
0 0.999956 -0.00934539 0 0.999956 -0.00934539 0.00934498 0.999913 -0.00934498 
-0.00934498 0.00934498 -0.999913 -0.999913 0.00934498 -0.00934498 0 0.00934539 -0.999956 
0 0.00934539 -0.999956 0 0.00934539 -0.999956 0.00934498 0.00934498 -0.999913 
0.57735 0.57735 -0.57735 0.57735 0.57735 -0.57735 -0.00934498 0.999913 -0.00934498 
0 0.999956 -0.00934539 0 0.999956 -0.00934539 0 0.999956 -0.00934539 
0.00934498 0.999913 -0.00934498 -0.00934498 -0.00934498 -0.999913 -0.00934498 -0.999913 -0.00934498 
-0.999913 -0.00934498 -0.00934498 0 -0.707107 -0.707107 0 -0.707107 -0.707107 
0 -0.707107 -0.707107 0 -0.707107 -0.707107 0 -0.707107 -0.707107 
0 -0.707107 -0.707107 0 -0.707107 -0.707107 0 -0.707107 -0.707107 
0 -0.707107 -0.707107 0 -0.707107 -0.707107 0 -0.707107 -0.707107 
0 -0.707107 -0.707107 0 -0.707107 -0.707107 0 -0.707107 -0.707107 
0 -0.707107 -0.707107 0 -0.707107 -0.707107 0 -0.707107 -0.707107 
0 -0.707107 -0.707107 0.00660833 -0.707091 -0.707091 0.00660833 -0.707091 -0.707091 
0.999913 -0.00934498 -0.00934498 -0.579149 -0.573736 -0.579149 -0.579149 -0.573736 -0.579149 
1 0 0 -0.57735 -0.57735 -0.57735 -0.57735 -0.57735 -0.57735 
-0.57735 -0.57735 -0.57735 1 0 0 -0.57735 -0.57735 -0.57735 
-0.57735 -0.57735 -0.57735 -0.57735 -0.57735 -0.57735 0.999956 0.00934539 0 
-0.00660833 -0.707091 -0.707091 -0.00660833 -0.707091 -0.707091 -0.57735 -0.57735 -0.57735 
0 -0.707107 -0.707107 0 -0.707107 -0.707107 -0.573736 -0.579149 -0.579149 
-0.573736 -0.579149 -0.579149 0.707107 0.707107 0 0.707107 0.707107 0 
-0.707091 -0.00660833 -0.707091 -0.57735 -0.57735 -0.57735 -0.57735 -0.57735 -0.57735 
0.707107 0.707107 0 0.707107 0.707107 0 -0.00934539 0 -0.999956 
-0.579149 -0.573736 -0.579149 -0.707107 0 -0.707107 -0.703764 0.00663928 -0.710403 
0.579149 0.579149 -0.573736 0.579149 0.579149 -0.573736 -0.00663928 0.703764 -0.710403 
0 0.707107 -0.707107 -0.575535 0.580964 -0.575535 -0.57735 0.57735 -0.57735 
-0.57735 0.57735 -0.57735 0.580964 0.575535 -0.575535 0.575535 0.580964 -0.575535 
0 0.710419 -0.703779 0 0.710419 -0.703779 0 0.710419 -0.703779 
0.00663928 0.710403 -0.703764 -0.57735 0.57735 -0.57735 -0.579149 0.579149 -0.573736 
0.57735 0.57735 -0.57735 0.707091 0.00660833 -0.707091 -0.00663928 0.710403 -0.703764 
0 0.710419 -0.703779 0 0.710419 -0.703779 0 0.710419 -0.703779 
0 0.710419 -0.703779 0.00660833 0.707091 -0.707091 -0.00660833 -0.707091 -0.707091 
-0.00660833 -0.707091 -0.707091 -0.57735 -0.57735 -0.57735 0 -0.707107 -0.707107 
0 -0.707107 -0.707107 0 -0.707107 -0.707107 0 -0.707107 -0.707107 
0 -0.707107 -0.707107 0 -0.707107 -0.707107 0 -0.707107 -0.707107 
0 -0.707107 -0.707107 0 -0.707107 -0.707107 0 -0.707107 -0.707107 
0 -0.707107 -0.707107 0 -0.707107 -0.707107 0 -0.707107 -0.707107 
0 -0.707107 -0.707107 0 -0.707107 -0.707107 0 -0.707107 -0.707107 
0.00660833 -0.707091 -0.707091 0.00660833 -0.707091 -0.707091 0.999913 -0.00934498 -0.00934498 
-0.579149 -0.579149 -0.573736 -0.579149 -0.579149 -0.573736 1 0 0 
-0.57735 -0.57735 -0.57735 -0.57735 -0.57735 -0.57735 -0.57735 -0.57735 -0.57735 
1 0 0 -0.57735 -0.57735 -0.57735 -0.57735 -0.57735 -0.57735 
-0.57735 -0.57735 -0.57735 0.999956 0 0.00934539 -0.00660833 -0.707091 -0.707091 
-0.00660833 -0.707091 -0.707091 -0.57735 -0.57735 -0.57735 0 -0.707107 -0.707107 
0 -0.707107 -0.707107 -0.573736 -0.579149 -0.579149 -0.573736 -0.579149 -0.579149 
0.999913 0.00934498 0.00934498 -0.57735 -0.57735 -0.57735 -0.57735 -0.57735 -0.57735 
-0.57735 -0.57735 -0.57735 0.707091 0.707091 0.00660833 0.707091 0.707091 0.00660833 
-0.57735 -0.57735 -0.57735 -0.57735 -0.57735 -0.57735 -0.707091 -0.707091 -0.00660833 
0.710419 0.703779 0 0.707091 0.707091 0.00660833 -0.707107 0 -0.707107 
-0.710403 -0.703764 -0.00663928 -0.999956 0 -0.00934539 0.579149 0.573736 -0.579149 
0.999956 0 -0.00934539 -0.710403 0.703764 -0.00663928 -0.00663928 0.703764 -0.710403 
-0.710403 0.703764 -0.00663928 0 0.703779 -0.710419 -0.575535 0.575535 -0.580964 
0.575535 0.575535 -0.580964 0 0.703779 -0.710419 0 0.703779 -0.710419 
0 0.703779 -0.710419 0 0.703779 -0.710419 0.00934498 0.00934498 -0.999913 
0.999913 0.00934498 -0.00934498 -0.00934498 0.00934498 -0.999913 -0.999913 0.00934498 -0.00934498 
0 0.00934539 -0.999956 0 0.00934539 -0.999956 -0.573736 0.579149 -0.579149 
0.703779 0 -0.710419 0 0 -1 0 0 -1 
0 0 -1 0.00934498 0.00934498 -0.999913 0.707091 0.707091 -0.00660833 
0.707091 0.707091 -0.00660833 -0.00934498 0.999913 -0.00934498 0 0.999956 -0.00934539 
0 0.999956 -0.00934539 -0.573736 0.579149 -0.579149 -0.00663928 0.703764 -0.710403 
-0.579149 0.573736 -0.579149 0 0.703779 -0.710419 0 0.703779 -0.710419 
0 0.703779 -0.710419 0 0.703779 -0.710419 0 0.703779 -0.710419 
0 0 -1 0 0 -1 0 0 -1 
0.00934498 0.00934498 -0.999913 0.707091 0.707091 -0.00660833 0.707091 0.707091 -0.00660833 
-0.00934498 0.00934498 -0.999913 -0.999913 0.00934498 -0.00934498 0 0.00934539 -0.999956 
0 0 -1 0 0 -1 0 0.00934539 -0.999956 
0 0.00934539 -0.999956 0 0.00934539 -0.999956 0 0.00934539 -0.999956 
0.00934498 0.00934498 -0.999913 0.707091 0.707091 -0.00660833 0.707091 0.707091 -0.00660833 
-0.00934498 0.999913 -0.00934498 -0.703764 0.710403 -0.00663928 -0.710403 0.703764 -0.00663928 
-0.00934539 0 -0.999956 0.00934498 0.00934498 -0.999913 0.707091 0.707091 -0.00660833 
0.703764 0.710403 -0.00663928 0 0.999956 -0.00934539 0 0.999956 -0.00934539 
0 0.999956 -0.00934539 0.00934498 0.999913 -0.00934498 0 0.00934539 -0.999956 
-0.999911 0.00943312 -0.00943312 0.703764 0.710403 -0.00663928 0.707091 0.707091 -0.00660833 
0 0.999956 -0.00934539 0 -0.00934539 -0.999956 0 -0.999956 -0.00934539 
-0.703764 -0.00663928 -0.710403 0.573736 -0.579149 -0.579149 -0.00934539 0 -0.999956 
-0.707107 0 -0.707107 0.573736 -0.579149 -0.579149 0 -0.707107 -0.707107 
0 -0.707107 -0.707107 0 -0.707107 -0.707107 0 -0.707107 -0.707107 
0 -0.707107 -0.707107 0 -0.707107 -0.707107 0 -0.707107 -0.707107 
0 -0.707107 -0.707107 0 -0.707107 -0.707107 0 -0.707107 -0.707107 
0 -0.707107 -0.707107 0 -0.707107 -0.707107 0 -0.707107 -0.707107 
0 -0.707107 -0.707107 0 -0.707107 -0.707107 0 -0.707107 -0.707107 
0 -0.707107 -0.707107 0.00660833 -0.707091 -0.707091 0.00660833 -0.707091 -0.707091 
0.999913 -0.00934498 -0.00934498 -0.579149 -0.573736 -0.579149 -0.579149 -0.573736 -0.579149 
1 0 0 -0.00934498 -0.00934498 -0.999913 -0.00660833 -0.707091 -0.707091 
-0.707091 -0.00660833 -0.707091 -0.573736 -0.579149 -0.579149 -0.573736 -0.579149 -0.579149 
1 0 0 -0.579149 -0.573736 -0.579149 -0.579149 -0.573736 -0.579149 
0.999956 0.00934539 0 -0.00663928 -0.710403 -0.703764 -0.00934539 -0.999956 0 
-0.707107 -0.707107 0 0 -0.707107 -0.707107 0 -0.999956 -0.00934539 
-0.573736 -0.579149 -0.579149 -0.573736 -0.579149 -0.579149 0.579149 0.573736 0.579149 
0.580964 0.575535 0.575535 0.579149 0.579149 0.573736 -0.579149 -0.579149 -0.573736 
-0.707107 -0.707107 0 -0.707107 -0.707107 0 0.707091 0.00660833 0.707091 
0.707091 0.00660833 0.707091 -0.579149 -0.579149 -0.573736 -0.707107 -0.707107 0 
-0.999956 -0.00934539 0 0.57735 0.57735 0.57735 0.580964 0.575535 0.575535 
0.57735 0.57735 0.57735 -0.710419 -0.703779 0 1 0 0 
-0.710419 -0.703779 0 -1 0 0 1 0 0 
-0.710419 0.703779 0 -0.710419 0.703779 0 0.999956 0.00934539 0 
-0.999956 0.00934539 0 0.707107 0.707107 0 0.707107 0.707107 0 
-0.00934539 0.999956 0 0 1 0 -0.575535 0.580964 -0.575535 
-0.57735 0.57735 -0.57735 -0.57735 0.57735 -0.57735 0.707107 0.707107 0 
0.707107 0.707107 0 -0.57735 0.57735 -0.57735 -0.579149 0.579149 -0.573736 
0.707107 0.707107 0 0.707107 0.707107 0 -0.00934539 0.999956 0 
-0.703779 0.710419 0 -0.710419 0.703779 0 0.707107 0.707107 0 
0.703779 0.710419 0 0 1 0 0 1 0 
0 1 0 0.00934539 0.999956 0 -0.999955 0.00943354 0 
0.703779 0.710419 0 0.707107 0.707107 0 0 1 0 
-0.00934498 -0.00934498 -0.999913 -0.00934498 -0.999913 -0.00934498 -0.707091 -0.707091 -0.00660833 
0.00943312 -0.00943312 -0.999911 0.00934539 -0.999956 0 0.999956 -0.00934539 0 
-0.00943312 -0.00943312 -0.999911 -0.707107 -0.707107 0 -0.707107 -0.707107 0 
0 0 -1 0.00943354 0 -0.999955 0.710419 -0.703779 0 
-0.00934498 -0.00934498 -0.999913 -0.00934498 -0.999913 -0.00934498 -0.999913 -0.00934498 -0.00934498 
0 -0.00934539 -0.999956 0 -0.999956 -0.00934539 -0.703764 -0.00663928 -0.710403 
0 -0.999956 -0.00934539 0 -1 0 0.573736 -0.579149 -0.579149 
-0.703764 -0.710403 -0.00663928 0 -0.703779 -0.710419 0 -0.703779 -0.710419 
0 -0.703779 -0.710419 0.703764 -0.710403 -0.00663928 0 -0.707107 -0.707107 
0 -0.707107 -0.707107 0 -0.999956 -0.00934539 0 -0.707107 -0.707107 
0 -0.999956 -0.00934539 0 -0.707107 -0.707107 0 -0.999956 -0.00934539 
0 -0.707107 -0.707107 0 -0.999956 -0.00934539 0.00663928 -0.710403 -0.703764 
0.00934539 -0.999956 0 0.999956 -0.00934539 0 -0.00934539 0 -0.999956 
-0.999956 0 -0.00934539 0 0 -1 -0.703779 0 -0.710419 
0.999956 0 0.00934539 -0.00934539 0 -0.999956 -0.710403 -0.703764 -0.00663928 
0 -0.703779 -0.710419 -0.575535 -0.575535 -0.580964 0.999956 0 0.00934539 
-0.00943354 0 -0.999955 -0.710419 -0.703779 0 -1 0 0 
-0.703779 0 -0.710419 0.999956 0 0.00934539 -1 0 0 
-0.999956 0 -0.00934539 -0.579149 -0.573736 -0.579149 0.999913 0.00934498 0.00934498 
-0.579149 -0.579149 0.573736 -0.579149 -0.579149 0.573736 -0.999956 -0.00934539 0 
0.707091 0.707091 0.00660833 0.707091 0.707091 0.00660833 -0.579149 -0.579149 0.573736 
-0.579149 -0.579149 0.573736 -0.579149 -0.579149 0.573736 0.57735 0.57735 0.57735 
0.579149 0.573736 0.579149 0.57735 0.57735 0.57735 -0.579149 -0.579149 0.573736 
-0.579149 -0.579149 0.573736 -0.579149 -0.579149 0.573736 0.999956 0 0.00934539 
-0.579149 -0.579149 0.573736 -0.707107 -0.707107 0 0.999956 0 0.00934539 
-0.710419 -0.703779 0 -1 0 0 0.999956 0 0.00934539 
-0.580964 0.575535 -0.575535 -0.580964 0.575535 -0.575535 0.999913 0.00934498 0.00934498 
-0.999956 0.00934539 0 0.707091 0.707091 0.00660833 0.707091 0.707091 0.00660833 
-0.00934539 0.999956 0 -0.703779 0.710419 0 -0.579149 0.573736 -0.579149 
-0.710403 0.703764 -0.00663928 0.707091 0.707091 0.00660833 0.707091 0.707091 0.00660833 
-0.00934498 0.00934498 -0.999913 -0.999913 0.00934498 -0.00934498 -0.573736 0.579149 -0.579149 
0.707091 0.707091 0.00660833 0.707091 0.707091 0.00660833 -0.00934498 0.999913 -0.00934498 
0 0.999956 -0.00934539 0 1 0 -0.703779 0.710419 0 
-0.710419 0.703779 0 0.707107 0.707107 0 0.703779 0.710419 0 
0 1 0 0 1 0 0 0.999956 0.00934539 
0.00934498 0.999913 0.00934498 -0.999955 0.00943354 0 0.703779 0.710419 0 
0.707107 0.707107 0 0 1 0 0 -0.999956 0.00934539 
-0.999911 -0.00943312 0.00943312 0.710403 -0.00663928 0.703764 0.703764 -0.00663928 0.710403 
-0.579149 -0.579149 0.573736 -0.575535 -0.575535 0.580964 0.580964 -0.575535 0.575535 
0.575535 -0.575535 0.580964 -0.00934498 -0.999913 0.00934498 -0.999913 -0.00934498 0.00934498 
0 -0.999956 0.00934539 0 -0.999956 0.00934539 0 -0.999956 0.00934539 
0 -0.999956 0.00934539 -0.573736 -0.579149 0.579149 0.573736 -0.579149 0.579149 
0 -0.999956 0.00934539 0 -0.999956 0.00934539 0 -0.999956 0.00934539 
0 -0.999956 0.00934539 0.00934498 -0.999913 0.00934498 0.710403 -0.00663928 0.703764 
0.707091 -0.00660833 0.707091 -0.999956 0 0.00934539 0.707107 0 0.707107 
0.707107 0 0.707107 -0.999956 0 0.00934539 0.707107 0 0.707107 
0.707107 0 0.707107 -0.710419 0 0.703779 -0.707107 0 0.707107 
0.707107 0 0.707107 0.707107 0 0.707107 -0.710419 -0.703779 0 
0.707091 0.00660833 0.707091 0.707091 0.00660833 0.707091 -0.707107 -0.707107 0 
-0.707107 -0.707107 0 0.575535 0.575535 0.580964 0.579149 0.573736 0.579149 
0.573736 0.579149 0.579149 0.00660833 0.707091 0.707091 0.00660833 0.707091 0.707091 
-0.707107 -0.707107 0 -0.707107 -0.707107 0 0.707107 0 0.707107 
0.707107 0 0.707107 -0.707107 -0.707107 0 -0.707107 -0.707107 0 
0.707107 0 0.707107 0.707107 0 0.707107 -0.707091 -0.707091 0.00660833 
-0.707091 -0.707091 0.00660833 0.707107 0 0.707107 0.707107 0 0.707107 
-0.707091 -0.707091 0.00660833 -0.999913 -0.00934498 0.00934498 0.707107 0 0.707107 
0.707107 0 0.707107 -0.579149 0.579149 -0.573736 -0.999956 0.00934539 0 
0.707091 0.00660833 0.707091 0.707091 0.00660833 0.707091 -0.707107 0.707107 0 
-0.707107 0.707107 0 0.575535 0.575535 0.580964 0.579149 0.573736 0.579149 
0.573736 0.579149 0.579149 0.00660833 0.707091 0.707091 0.00660833 0.707091 0.707091 
-0.00934539 0.999956 0 -0.703779 0.710419 0 -0.710419 0.703779 0 
0.707091 0.00660833 0.707091 0.707091 0.00660833 0.707091 -0.999956 0.00934539 0 
0.573736 0.579149 0.579149 0.579149 0.579149 0.573736 0.575535 0.580964 0.575535 
0.00660833 0.707091 0.707091 0.00660833 0.707091 0.707091 -0.00934539 0.999956 0 
0 1 0 0 1 0 -0.703779 0.710419 0 
-0.710419 0.703779 0 0.707107 0.707107 0 0.703779 0.710419 0 
0 1 0 0.00934539 0.999956 0 -0.999955 0.00943354 0 