# vtk DataFile Version 3.0
vtk output
ASCII
DATASET POLYDATA
POINTS 6154 float
59 92 31.0101 59 91.0101 32 58.0101 92 32 
60 92 31.0101 60 91.0101 32 60.9899 92 32 
58 93 31.0101 58 92.0101 32 57.0101 93 32 
59 93 31.0101 59.9899 93 32 60 92.9899 32 
57 94 31.0101 57 93.0101 32 56.0101 94 32 
58 94 31.0101 58.9899 94 32 59 93.9899 32 
57 95 31.0101 56.0101 95 32 57.9899 95 32 
58 94.9899 32 57 95.9899 32 56 82 32.0101 
56 81.0101 33 55.0101 82 33 56.9899 82 33 
56 83 32.0101 55.0101 83 33 57 82.0101 33 
57 83 32.0101 57.9899 83 33 56 83.9899 33 
57 83.9899 33 60 89 32.0101 60 88.0101 33 
59.0101 89 33 61 89 32.0101 61 88.0101 33 
61.9899 89 33 60 90 32.0101 59.0101 90 33 
60.9899 90 33 61 89.9899 33 58 91 32.0101 
58 90.0101 33 57.0101 91 33 59 91 32.0101 
59 90.0101 33 60 91 32.0101 60.9899 91 33 
52 92 32.0101 52 91.0101 33 51.0101 92 33 
52.9899 92 33 58 92 32.0101 57.0101 92 33 
60.9899 92 33 52 92.9899 33 53 92.0101 33 
52.0101 93 33 53 93 32.0101 54 93 32.0101 
54 92.0101 33 55 93 32.0101 55 92.0101 33 
56 93 32.0101 56 92.0101 33 57 93 32.0101 
57 92.0101 33 59.9899 93 33 60 92.9899 33 
53 93.9899 33 54 93.9899 33 55 93.9899 33 
55.0101 94 33 56 94 32.0101 58.9899 94 33 
59 93.9899 33 56 94.9899 33 56.0101 95 33 
57.9899 95 33 58 94.9899 33 57 95.9899 33 
56 81 33.0101 56 80.0101 34 55.0101 81 34 
56.9899 81 34 55 82 33.0101 55 81.0101 34 
54.0101 82 34 57 82 33.0101 57 81.0101 34 
58 82 33.0101 58 81.0101 34 58.9899 82 34 
55 83 33.0101 54.0101 83 34 58 83 33.0101 
58.9899 83 34 55 83.9899 34 56 83.9899 34 
57 84 33.0101 56.0101 84 34 58 84 33.0101 
59 83.0101 34 59 84 33.0101 60 84 33.0101 
60 83.0101 34 60.9899 84 34 57 85 33.0101 
56.0101 85 34 58 85 33.0101 59 85 33.0101 
60 85 33.0101 60.9899 85 34 57 86 33.0101 
56.0101 86 34 58 86 33.0101 59 86 33.0101 
60 86 33.0101 60.9899 86 34 56 87 33.0101 
56 86.0101 34 55.0101 87 34 57 87 33.0101 
58 87 33.0101 59 87 33.0101 60 87 33.0101 
60.9899 87 34 55 88 33.0101 55 87.0101 34 
54.0101 88 34 56 88 33.0101 57 88 33.0101 
58 88 33.0101 59 88 33.0101 60 88 33.0101 
61 87.0101 34 61 88 33.0101 62 88 33.0101 
62 87.0101 34 62.9899 88 34 55 89 33.0101 
54.0101 89 34 56 89 33.0101 57 89 33.0101 
58 89 33.0101 59 89 33.0101 62 89 33.0101 
62.9899 89 34 55 90 33.0101 54.0101 90 34 
56 90 33.0101 57 90 33.0101 58 90 33.0101 
59 90 33.0101 61 90 33.0101 62 90 33.0101 
62.9899 90 34 54 91 33.0101 54 90.0101 34 
53.0101 91 34 55 91 33.0101 56 91 33.0101 
57 91 33.0101 61 91 33.0101 61.9899 91 34 
62 90.9899 34 51 92 33.0101 51 91.0101 34 
50.0101 92 34 52 91.0101 34 53 92 33.0101 
53 91.0101 34 54 92 33.0101 55 92 33.0101 
56 92 33.0101 57 92 33.0101 60.9899 92 34 
61 91.9899 34 51 93 33.0101 50.0101 93 34 
52 93 33.0101 59.9899 93 34 60 92.9899 34 
51 93.9899 34 52 93.9899 34 53 94 33.0101 
52.0101 94 34 54 94 33.0101 55 94 33.0101 
58.9899 94 34 59 93.9899 34 53 95 33.0101 
52.0101 95 34 54 95 33.0101 55 95 33.0101 
56 95 33.0101 57.9899 95 34 58 94.9899 34 
53 95.9899 34 54 95.9899 34 55 95.9899 34 
56 95.9899 34 57 95.9899 34 56 80.0101 35 
55.0101 81 35 57 81 34.0101 57 80.0101 35 
58 81 34.0101 58 80.0101 35 58.9899 81 35 
55 81.0101 35 54.0101 82 35 58.9899 82 35 
54.0101 83 35 59 82.0101 35 59 83 34.0101 
59.9899 83 35 55 83.9899 35 56 84 34.0101 
55.0101 84 35 60 83.0101 35 60.9899 84 35 
56 85 34.0101 55.0101 85 35 60.9899 85 35 
56 86 34.0101 55.0101 86 35 60.9899 86 35 
53 87 34.0101 53 86.0101 35 52.0101 87 35 
54 87 34.0101 54 86.0101 35 55 87 34.0101 
55 86.0101 35 61 86.0101 35 61 87 34.0101 
61.9899 87 35 53 87.9899 35 53.0101 88 35 
54 88 34.0101 62 87.0101 35 62.9899 88 35 
54 89 34.0101 53.0101 89 35 62.9899 89 35 
54 90 34.0101 53.0101 90 35 62.9899 90 35 
50 91 34.0101 50 90.0101 35 49.0101 91 35 
51 91 34.0101 51 90.0101 35 52 91 34.0101 
52 90.0101 35 53 91 34.0101 53 90.0101 35 
61.9899 91 35 62 90.9899 35 50 91.9899 35 
50.0101 92 35 60.9899 92 35 61 91.9899 35 
50.0101 93 35 59.9899 93 35 60 92.9899 35 
51 93.9899 35 52 93.9899 35 52.0101 94 35 
58.9899 94 35 59 93.9899 35 52.0101 95 35 
57.9899 95 35 58 94.9899 35 53 95.9899 35 
54 95.9899 35 55 95.9899 35 56 95.9899 35 
57 95.9899 35 61 66 35.0101 61 65.0101 36 
60.0101 66 36 62 66 35.0101 62 65.0101 36 
63 66 35.0101 63 65.0101 36 64 66 35.0101 
64 65.0101 36 64.9899 66 36 60 67 35.0101 
60 66.0101 36 59.0101 67 36 61 67 35.0101 
62 67 35.0101 63 67 35.0101 63.9899 67 36 
64 66.9899 36 59 68 35.0101 59 67.0101 36 
58.0101 68 36 60 68 35.0101 61 68 35.0101 
62 68 35.0101 62.9899 68 36 63 67.9899 36 
59 69 35.0101 58.0101 69 36 60 69 35.0101 
61 69 35.0101 62 69 35.0101 62.9899 69 36 
59 70 35.0101 58.0101 70 36 60 70 35.0101 
61 70 35.0101 62 70 35.0101 62.9899 70 36 
58 71 35.0101 58 70.0101 36 57.0101 71 36 
59 71 35.0101 60 71 35.0101 61 71 35.0101 
62 71 35.0101 62.9899 71 36 57 72 35.0101 
57 71.0101 36 56.0101 72 36 58 72 35.0101 
59 72 35.0101 60 72 35.0101 61 72 35.0101 
62 72 35.0101 62.9899 72 36 56 73 35.0101 
56 72.0101 36 55.0101 73 36 57 73 35.0101 
58 73 35.0101 59 73 35.0101 60 73 35.0101 
61 73 35.0101 61.9899 73 36 62 72.9899 36 
55 74 35.0101 55 73.0101 36 54.0101 74 36 
56 74 35.0101 57 74 35.0101 58 74 35.0101 
59 74 35.0101 60 74 35.0101 60.9899 74 36 
61 73.9899 36 55 75 35.0101 54.0101 75 36 
56 75 35.0101 57 75 35.0101 58 75 35.0101 
59 75 35.0101 60 75 35.0101 60.9899 75 36 
55 76 35.0101 54.0101 76 36 56 76 35.0101 
57 76 35.0101 58 76 35.0101 59 76 35.0101 
60 76 35.0101 60.9899 76 36 55 77 35.0101 
54.0101 77 36 56 77 35.0101 57 77 35.0101 
58 77 35.0101 59 77 35.0101 60 77 35.0101 
60.9899 77 36 55 77.9899 36 56 77.9899 36 
56.0101 78 36 57 78 35.0101 58 78 35.0101 
59 78 35.0101 60 78 35.0101 60.9899 78 36 
57 79 35.0101 56.0101 79 36 58 79 35.0101 
59 79 35.0101 60 79 35.0101 60.9899 79 36 
57 80 35.0101 56.0101 80 36 58 80 35.0101 
59 80 35.0101 60 80 35.0101 60.9899 80 36 
56 80.0101 36 55.0101 81 36 59 81 35.0101 
60 81 35.0101 60.9899 81 36 55 81.0101 36 
54.0101 82 36 59 82 35.0101 60 82 35.0101 
60.9899 82 36 54.0101 83 36 60 83 35.0101 
60.9899 83 36 55 84 35.0101 54.0101 84 36 
60.9899 84 36 54 85 35.0101 54 84.0101 36 
53.0101 85 36 55 85 35.0101 60.9899 85 36 
53 86 35.0101 53 85.0101 36 52.0101 86 36 
54 86 35.0101 55 86 35.0101 61 85.0101 36 
61 86 35.0101 62 86 35.0101 62 85.0101 36 
62.9899 86 36 52 87 35.0101 52 86.0101 36 
51.0101 87 36 62 87 35.0101 62.9899 87 36 
51 88 35.0101 51 87.0101 36 50.0101 88 36 
52 88 35.0101 53 88 35.0101 62.9899 88 36 
51 89 35.0101 50.0101 89 36 52 89 35.0101 
53 89 35.0101 62.9899 89 36 51 90 35.0101 
50.0101 90 36 52 90 35.0101 53 90 35.0101 
62.9899 90 36 50 90.0101 36 49.0101 91 36 
61.9899 91 36 62 90.9899 36 50 91.9899 36 
50.0101 92 36 60.9899 92 36 61 91.9899 36 
50.0101 93 36 59.9899 93 36 60 92.9899 36 
51 93.9899 36 52 93.9899 36 52.0101 94 36 
58.9899 94 36 59 93.9899 36 52.0101 95 36 
57.9899 95 36 58 94.9899 36 53 95.9899 36 
54 95.9899 36 55 95.9899 36 56 95.9899 36 
57 95.9899 36 64 65 36.0101 64 64.0101 37 
63.0101 65 37 64.9899 65 37 61 65.0101 37 
60.0101 66 37 62 65.0101 37 63 65.0101 37 
64.9899 66 37 60 66.0101 37 59.0101 67 37 
64 67 36.0101 64.9899 67 37 59 67.0101 37 
58.0101 68 37 62.9899 68 37 63 67.9899 37 
64 67.9899 37 58.0101 69 37 62.9899 69 37 
58.0101 70 37 62.9899 70 37 58 70.0101 37 
57.0101 71 37 62.9899 71 37 57 71.0101 37 
56.0101 72 37 62.9899 72 37 56 72.0101 37 
55.0101 73 37 62 73 36.0101 62.9899 73 37 
55 73.0101 37 54.0101 74 37 60.9899 74 37 
61 73.9899 37 62 73.9899 37 54.0101 75 37 
60.9899 75 37 54.0101 76 37 60.9899 76 37 
54.0101 77 37 60.9899 77 37 55 77.9899 37 
56 78 36.0101 55.0101 78 37 60.9899 78 37 
56 79 36.0101 55.0101 79 37 60.9899 79 37 
56 80 36.0101 55.0101 80 37 60.9899 80 37 
55 81 36.0101 55 80.0101 37 54.0101 81 37 
60.9899 81 37 54.0101 82 37 60.9899 82 37 
54 83 36.0101 54 82.0101 37 53.0101 83 37 
60.9899 83 37 54 84 36.0101 53.0101 84 37 
60.9899 84 37 53 85 36.0101 53 84.0101 37 
52.0101 85 37 61 84.0101 37 61 85 36.0101 
61.9899 85 37 52 86 36.0101 52 85.0101 37 
51.0101 86 37 62 85.0101 37 62.9899 86 37 
51 87 36.0101 51 86.0101 37 50.0101 87 37 
62 87 36.9899 61.9899 87 37 62 86.9899 37 
50 88 36.0101 50 87.0101 37 49.0101 88 37 
62 88 36.9899 61.9899 88 37 50 89 36.0101 
49.0101 89 37 62 89 36.9899 61.9899 89 37 
50 90 36.0101 49.0101 90 37 62 90 36.9899 
61.9899 90 37 49.0101 91 37 61 91 36.9899 
60.9899 91 37 61 90.9899 37 50 91.9899 37 
50.0101 92 37 60.9899 92 37 50.0101 93 37 
59.9899 93 37 60 92.9899 37 51 93.9899 37 
52 93.9899 37 52.0101 94 37 58.9899 94 37 
59 93.9899 37 52.0101 95 37 58 95 36.0101 
58.9899 95 37 53 95.9899 37 54 95.9899 37 
55 95.9899 37 56 95.9899 37 57 95.9899 37 
58 95.9899 37 65 64 37.0101 65 63.0101 38 
64.0101 64 38 66 64 37.0101 66 63.0101 38 
67 64 37.0101 67 63.0101 38 68 64 37.0101 
68 63.0101 38 68.9899 64 38 64 64.0101 38 
63.0101 65 38 65 65 37.0101 66 65 37.0101 
67 65 37.0101 68 65 37.0101 68.9899 65 38 
61 65.0101 38 60.0101 66 38 62 65.0101 38 
63 65.0101 38 65 66 37.0101 66 66 37.0101 
67 66 37.0101 68 66 37.0101 68.9899 66 38 
60 66.0101 38 59.0101 67 38 65 67 37.0101 
66 67 37.0101 67 67 37.0101 67.9899 67 38 
68 66.9899 38 59 67.0101 38 58.0101 68 38 
63 68 37.0101 64 68 37.0101 65 68 37.0101 
66 68 37.0101 66.9899 68 38 67 67.9899 38 
58.0101 69 38 63 69 37.0101 64 69 37.0101 
65 69 37.0101 66 69 37.0101 66.9899 69 38 
58.0101 70 38 63 70 37.0101 64 70 37.0101 
65 70 37.0101 66 70 37.0101 66.9899 70 38 
58 70.0101 38 57.0101 71 38 63 71 37.0101 
64 71 37.0101 65 71 37.0101 65.9899 71 38 
66 70.9899 38 57 71.0101 38 56.0101 72 38 
63 72 37.0101 64 72 37.0101 64.9899 72 38 
65 71.9899 38 56 72.0101 38 55.0101 73 38 
63 73 37.0101 64 73 37.0101 64.9899 73 38 
55 73.0101 38 54.0101 74 38 61 74 37.0101 
62 74 37.0101 63 74 37.0101 64 74 37.0101 
64.9899 74 38 54.0101 75 38 61 75 37.0101 
62 75 37.0101 63 75 37.0101 63.9899 75 38 
64 74.9899 38 54.0101 76 38 61 76 37.0101 
62 76 37.0101 62.9899 76 38 63 75.9899 38 
54.0101 77 38 61 77 37.0101 62 77 37.0101 
[...]
POINT_DATA 6154
SCALARS scalars float
LOOKUP_TABLE default
1 1 1 1 1 1 1 1 1 
1 1 1 1 1 1 1 1 1 
1 1 1 1 1 1 1 1 1 
1 1 1 1 1 1 1 1 1 
1 1 1 1 1 1 1 1 1 
1 1 1 1 1 1 1 1 1 
1 1 1 1 1 1 1 1 1 
1 1 1 1 1 1 1 1 1 
1 1 1 1 1 1 1 1 1 
1 1 1 1 1 1 1 1 1 
1 1 1 1 1 1 1 1 1 
1 1 1 1 1 1 1 1 1 
1 1 1 1 1 1 1 1 1 
1 1 1 1 1 1 1 1 1 
1 1 1 1 1 1 1 1 1 
1 1 1 1 1 1 1 1 1 
1 1 1 1 1 1 1 1 1 
1 1 1 1 1 1 1 1 1 
1 1 1 1 1 1 1 1 1 
1 1 1 1 1 1 1 1 1 
1 1 1 1 1 1 1 1 1 
1 1 1 1 1 1 1 1 1 
1 1 1 1 1 1 1 1 1 
1 1 1 1 1 1 1 1 1 
1 1 1 1 1 1 1 1 1 
1 1 1 1 1 1 1 1 1 
1 1 1 1 1 1 1 1 1 
1 1 1 1 1 1 1 1 1 
1 1 1 1 1 1 1 1 1 
1 1 1 1 1 1 1 1 1 
1 1 1 1 1 1 1 1 1 
1 1 1 1 1 1 1 1 1 
1 1 1 1 1 1 1 1 1 
1 1 1 1 1 1 1 1 1 
1 1 1 1 1 1 1 1 1 
1 1 1 1 1 1 1 1 1 
1 1 1 1 1 1 1 1 1 
1 1 1 1 1 1 1 1 1 
1 1 1 1 1 1 1 1 1 
1 1 1 1 1 1 1 1 1 
1 1 1 1 1 1 1 1 1 
1 1 1 1 1 1 1 1 1 
1 1 1 1 1 1 1 1 1 
1 1 1 1 1 1 1 1 1 
1 1 1 1 1 1 1 1 1 
1 1 1 1 1 1 1 1 1 
1 1 1 1 1 1 1 1 1 
1 1 1 1 1 1 1 1 1 
1 1 1 1 1 1 1 1 1 
1 1 1 1 1 1 1 1 1 
1 1 1 1 1 1 1 1 1 
1 1 1 1 1 1 1 1 1 
1 1 1 1 1 1 1 1 1 
1 1 1 1 1 1 1 1 1 
1 1 1 1 1 1 1 1 1 
1 1 1 1 1 1 1 1 1 
1 1 1 1 1 1 1 1 1 
1 1 1 1 1 1 1 1 1 
1 1 1 1 1 1 1 1 1 
1 1 1 1 1 1 1 1 1 
1 1 1 1 1 1 1 1 1 
1 1 1 1 1 1 1 1 1 
1 1 1 1 1 1 1 1 1 
1 1 1 1 1 1 1 1 1 
1 1 1 1 1 1 1 1 1 
1 1 1 1 1 1 1 1 1 
1 1 1 1 1 1 1 1 1 
1 1 1 1 1 1 1 1 1 
1 1 1 1 1 1 1 1 1 
1 1 1 1 1 1 1 1 1 
1 1 1 1 1 1 1 1 1 
1 1 1 1 1 1 1 1 1 
1 1 1 1 1 1 1 1 1 
1 1 1 1 1 1 1 1 1 
1 1 1 1 1 1 1 1 1 
1 1 1 1 1 1 1 1 1 
1 1 1 1 1 1 1 1 1 
1 1 1 1 1 1 1 1 1 
1 1 1 1 1 1 1 1 1 
1 1 1 1 1 1 1 1 1 
1 1 1 1 1 1 1 1 1 
1 1 1 1 1 1 1 1 1 
1 1 1 1 1 1 1 1 1 
1 1 1 1 1 1 1 1 1 
1 1 1 1 1 1 1 1 1 
1 1 1 1 1 1 1 1 1 
1 1 1 1 1 1 1 1 1 
1 1 1 1 1 1 1 1 1 
1 1 1 1 1 1 1 1 1 
1 1 1 1 1 1 1 1 1 
1 1 1 1 1 1 1 1 1 
1 1 1 1 1 1 1 1 1 
1 1 1 1 1 1 1 1 1 
1 1 1 1 1 1 1 1 1 
1 1 1 1 1 1 1 1 1 
1 1 1 1 1 1 1 1 1 
1 1 1 1 1 1 1 1 1 
1 1 1 1 1 1 1 1 1 
1 1 1 1 1 1 1 1 1 
1 1 1 1 1 1 1 1 1 
1 1 1 1 1 1 1 1 1 
1 1 1 1 1 1 1 1 1 
1 1 1 1 1 1 1 1 1 
1 1 1 1 1 1 1 1 1 
1 1 1 1 1 1 1 1 1 
1 1 1 1 1 1 1 1 1 
1 1 1 1 1 1 1 1 1 
1 1 1 1 1 1 1 1 1 
1 1 1 1 1 1 1 1 1 
1 1 1 1 1 1 1 1 1 
1 1 1 1 1 1 1 1 1 
1 1 1 1 1 1 1 1 1 
1 1 1 1 1 1 1 1 1 
1 1 1 1 1 1 1 1 1 
1 1 1 1 1 1 1 1 1 
1 1 1 1 1 1 1 1 1 
1 1 1 1 1 1 1 1 1 
1 1 1 1 1 1 1 1 1 
1 1 1 1 1 1 1 1 1 
1 1 1 1 1 1 1 1 1 
1 1 1 1 1 1 1 1 1 
1 1 1 1 1 1 1 1 1 
1 1 1 1 1 1 1 1 1 
1 1 1 1 1 1 1 1 1 
1 1 1 1 1 1 1 1 1 
1 1 1 1 1 1 1 1 1 
1 1 1 1 1 1 1 1 1 
1 1 1 1 1 1 1 1 1 
1 1 1 1 1 1 1 1 1 
1 1 1 1 1 1 1 1 1 
1 1 1 1 1 1 1 1 1 
1 1 1 1 1 1 1 1 1 
1 1 1 1 1 1 1 1 1 
1 1 1 1 1 1 1 1 1 
1 1 1 1 1 1 1 1 1 
1 1 1 1 1 1 1 1 1 
1 1 1 1 1 1 1 1 1 
1 1 1 1 1 1 1 1 1 
1 1 1 1 1 1 1 1 1 
1 1 1 1 1 1 1 1 1 
1 1 1 1 1 1 1 1 1 
1 1 1 1 1 1 1 1 1 
1 1 1 1 1 1 1 1 1 
1 1 1 1 1 1 1 1 1 
1 1 1 1 1 1 1 1 1 
1 1 1 1 1 1 1 1 1 
1 1 1 1 1 1 1 1 1 
1 1 1 1 1 1 1 1 1 
1 1 1 1 1 1 1 1 1 
1 1 1 1 1 1 1 1 1 
1 1 1 1 1 1 1 1 1 
1 1 1 1 1 1 1 1 1 
1 1 1 1 1 1 1 1 1 
1 1 1 1 1 1 1 1 1 
1 1 1 1 1 1 1 1 1 
1 1 1 1 1 1 1 1 1 
1 1 1 1 1 1 1 1 1 
1 1 1 1 1 1 1 1 1 
1 1 1 1 1 1 1 1 1 
1 1 1 1 1 1 1 1 1 
1 1 1 1 1 1 1 1 1 
1 1 1 1 1 1 1 1 1 
1 1 1 1 1 1 1 1 1 
1 1 1 1 1 1 1 1 1 
1 1 1 1 1 1 1 1 1 
1 1 1 1 1 1 1 1 1 
1 1 1 1 1 1 1 1 1 
1 1 1 1 1 1 1 1 1 
1 1 1 1 1 1 1 1 1 
1 1 1 1 1 1 1 1 1 
1 1 1 1 1 1 1 1 1 
1 1 1 1 1 1 1 1 1 
1 1 1 1 1 1 1 1 1 
1 1 1 1 1 1 1 1 1 
1 1 1 1 1 1 1 1 1 
1 1 1 1 1 1 1 1 1 
1 1 1 1 1 1 1 1 1 
1 1 1 1 1 1 1 1 1 
1 1 1 1 1 1 1 1 1 
1 1 1 1 1 1 1 1 1 
1 1 1 1 1 1 1 1 1 
1 1 1 1 1 1 1 1 1 
1 1 1 1 1 1 1 1 1 
1 1 1 1 1 1 1 1 1 
1 1 1 1 1 1 1 1 1 
1 1 1 1 1 1 1 1 1 
1 1 1 1 1 1 1 1 1 
1 1 1 1 1 1 1 1 1 
1 1 1 1 1 1 1 1 1 
1 1 1 1 1 1 1 1 1 
1 1 1 1 1 1 1 1 1 
1 1 1 1 1 1 1 1 1 
1 1 1 1 1 1 1 1 1 
1 1 1 1 1 1 1 1 1 
1 1 1 1 1 1 1 1 1 
1 1 1 1 1 1 1 1 1 
1 1 1 1 1 1 1 1 1 
1 1 1 1 1 1 1 1 1 
1 1 1 1 1 1 1 1 1 
1 1 1 1 1 1 1 1 1 
1 1 1 1 1 1 1 1 1 
1 1 1 1 1 1 1 1 1 
1 1 1 1 1 1 1 1 1 
1 1 1 1 1 1 1 1 1 
1 1 1 1 1 1 1 1 1 
1 1 1 1 1 1 1 1 1 
1 1 1 1 1 1 1 1 1 
1 1 1 1 1 1 1 1 1 
1 1 1 1 1 1 1 1 1 
1 1 1 1 1 1 1 1 1 
1 1 1 1 1 1 1 1 1 
1 1 1 1 1 1 1 1 1 
1 1 1 1 1 1 1 1 1 
1 1 1 1 1 1 1 1 1 
1 1 1 1 1 1 1 1 1 
1 1 1 1 1 1 1 1 1 
1 1 1 1 1 1 1 1 1 
1 1 1 1 1 1 1 1 1 
1 1 1 1 1 1 1 1 1 
1 1 1 1 1 1 1 1 1 
1 1 1 1 1 1 1 1 1 
1 1 1 1 1 1 1 1 1 
1 1 1 1 1 1 1 1 1 
1 1 1 1 1 1 1 1 1 
1 1 1 1 1 1 1 1 1 
1 1 1 1 1 1 1 1 1 
1 1 1 1 1 1 1 1 1 
1 1 1 1 1 1 1 1 1 
1 1 1 1 1 1 1 1 1 
1 1 1 1 1 1 1 1 1 
1 1 1 1 1 1 1 1 1 
1 1 1 1 1 1 1 1 1 
1 1 1 1 1 1 1 1 1 
1 1 1 1 1 1 1 1 1 
1 1 1 1 1 1 1 1 1 
1 1 1 1 1 1 1 1 1 
1 1 1 1 1 1 1 1 1 
1 1 1 1 1 1 1 1 1 
1 1 1 1 1 1 1 1 1 
1 1 1 1 1 1 1 1 1 
1 1 1 1 1 1 1 1 1 
1 1 1 1 1 1 1 1 1 
1 1 1 1 1 1 1 1 1 
1 1 1 1 1 1 1 1 1 
1 1 1 1 1 1 1 1 1 
1 1 1 1 1 1 1 1 1 
1 1 1 1 1 1 1 1 1 
1 1 1 1 1 1 1 1 1 
1 1 1 1 1 1 1 1 1 
1 1 1 1 1 1 1 1 1 
1 1 1 1 1 1 1 1 1 
1 1 1 1 1 1 1 1 1 
1 1 1 1 1 1 1 1 1 
1 1 1 1 1 1 1 1 1 
1 1 1 1 1 1 1 1 1 
1 1 1 1 1 1 1 1 1 
1 1 1 1 1 1 1 1 1 
1 1 1 1 1 1 1 1 1 
1 1 1 1 1 1 1 1 1 
1 1 1 1 1 1 1 1 1 
1 1 1 1 1 1 1 1 1 
1 1 1 1 1 1 1 1 1 
1 1 1 1 1 1 1 1 1 
1 1 1 1 1 1 1 1 1 
1 1 1 1 1 1 1 1 1 
1 1 1 1 1 1 1 1 1 
1 1 1 1 1 1 1 1 1 
1 1 1 1 1 1 1 1 1 
1 1 1 1 1 1 1 1 1 
1 1 1 1 1 1 1 1 1 
1 1 1 1 1 1 1 1 1 
1 1 1 1 1 1 1 1 1 
1 1 1 1 1 1 1 1 1 
1 1 1 1 1 1 1 1 1 
1 1 1 1 1 1 1 1 1 
1 1 1 1 1 1 1 1 1 
1 1 1 1 1 1 1 1 1 
1 1 1 1 1 1 1 1 1 
1 1 1 1 1 1 1 1 1 
1 1 1 1 1 1 1 1 1 
1 1 1 1 1 1 1 1 1 
1 1 1 1 1 1 1 1 1 
1 1 1 1 1 1 1 1 1 
1 1 1 1 1 1 1 1 1 
1 1 1 1 1 1 1 1 1 
1 1 1 1 1 1 1 1 1 
1 1 1 1 1 1 1 1 1 
1 1 1 1 1 1 1 1 1 
1 1 1 1 1 1 1 1 1 
1 1 1 1 1 1 1 1 1 
1 1 1 1 1 1 1 1 1 
1 1 1 1 1 1 1 1 1 
1 1 1 1 1 1 1 1 1 
1 1 1 1 1 1 1 1 1 
1 1 1 1 1 1 1 1 1 
1 1 1 1 1 1 1 1 1 
1 1 1 1 1 1 1 1 1 
1 1 1 1 1 1 1 1 1 
1 1 1 1 1 1 1 1 1 
1 1 1 1 1 1 1 1 1 
1 1 1 1 1 1 1 1 1 
1 1 1 1 1 1 1 1 1 
1 1 1 1 1 1 1 1 1 
1 1 1 1 1 1 1 1 1 
1 1 1 1 1 1 1 1 1 
1 1 1 1 1 1 1 1 1 
1 1 1 1 1 1 1 1 1 
1 1 1 1 1 1 1 1 1 
1 1 1 1 1 1 1 1 1 
1 1 1 1 1 1 1 1 1 
1 1 1 1 1 1 1 1 1 
1 1 1 1 1 1 1 1 1 
1 1 1 1 1 1 1 1 1 
1 1 1 1 1 1 1 1 1 
1 1 1 1 1 1 1 1 1 
1 1 1 1 1 1 1 1 1 
1 1 1 1 1 1 1 1 1 
1 1 1 1 1 1 1 1 1 
1 1 1 1 1 1 1 1 1 
1 1 1 1 1 1 1 1 1 
1 1 1 1 1 1 1 1 1 
1 1 1 1 1 1 1 1 1 
1 1 1 1 1 1 1 1 1 
1 1 1 1 1 1 1 1 1 
1 1 1 1 1 1 1 1 1 
1 1 1 1 1 1 1 1 1 
1 1 1 1 1 1 1 1 1 
1 1 1 1 1 1 1 1 1 
1 1 1 1 1 1 1 1 1 
1 1 1 1 1 1 1 1 1 
1 1 1 1 1 1 1 1 1 
1 1 1 1 1 1 1 1 1 
1 1 1 1 1 1 1 1 1 
1 1 1 1 1 1 1 1 1 
1 1 1 1 1 1 1 1 1 
1 1 1 1 1 1 1 1 1 
1 1 1 1 1 1 1 1 1 
1 1 1 1 1 1 1 1 1 
1 1 1 1 1 1 1 1 1 
1 1 1 1 1 1 1 1 1 
1 1 1 1 1 1 1 1 1 
1 1 1 1 1 1 1 1 1 
1 1 1 1 1 1 1 1 1 
1 1 1 1 1 1 1 1 1 
1 1 1 1 1 1 1 1 1 
1 1 1 1 1 1 1 1 1 
1 1 1 1 1 1 1 1 1 
1 1 1 1 1 1 1 1 1 
1 1 1 1 1 1 1 1 1 
1 1 1 1 1 1 1 1 1 
1 1 1 1 1 1 1 1 1 
1 1 1 1 1 1 1 1 1 
1 1 1 1 1 1 1 1 1 
1 1 1 1 1 1 1 1 1 
1 1 1 1 1 1 1 1 1 
1 1 1 1 1 1 1 1 1 
1 1 1 1 1 1 1 1 1 
1 1 1 1 1 1 1 1 1 
1 1 1 1 1 1 1 1 1 
1 1 1 1 1 1 1 1 1 
1 1 1 1 1 1 1 1 1 
1 1 1 1 1 1 1 1 1 
1 1 1 1 1 1 1 1 1 
1 1 1 1 1 1 1 1 1 
1 1 1 1 1 1 1 1 1 
1 1 1 1 1 1 1 1 1 
1 1 1 1 1 1 1 1 1 
1 1 1 1 1 1 1 1 1 
1 1 1 1 1 1 1 1 1 
1 1 1 1 1 1 1 1 1 
1 1 1 1 1 1 1 1 1 
1 1 1 1 1 1 1 1 1 
1 1 1 1 1 1 1 1 1 
1 1 1 1 1 1 1 1 1 
1 1 1 1 1 1 1 1 1 
1 1 1 1 1 1 1 1 1 
1 1 1 1 1 1 1 1 1 
1 1 1 1 1 1 1 1 1 
1 1 1 1 1 1 1 1 1 
1 1 1 1 1 1 1 1 1 
1 1 1 1 1 1 1 1 1 
1 1 1 1 1 1 1 1 1 
1 1 1 1 1 1 1 1 1 
1 1 1 1 1 1 1 1 1 
1 1 1 1 1 1 1 1 1 
1 1 1 1 1 1 1 1 1 
1 1 1 1 1 1 1 1 1 
1 1 1 1 1 1 1 1 1 
1 1 1 1 1 1 1 1 1 
1 1 1 1 1 1 1 1 1 
1 1 1 1 1 1 1 1 1 
1 1 1 1 1 1 1 1 1 
1 1 1 1 1 1 1 1 1 
1 1 1 1 1 1 1 1 1 
1 1 1 1 1 1 1 1 1 
1 1 1 1 1 1 1 1 1 
1 1 1 1 1 1 1 1 1 
1 1 1 1 1 1 1 1 1 
1 1 1 1 1 1 1 1 1 
1 1 1 1 1 1 1 1 1 
1 1 1 1 1 1 1 1 1 
1 1 1 1 1 1 1 1 1 
1 1 1 1 1 1 1 1 1 
1 1 1 1 1 1 1 1 1 
1 1 1 1 1 1 1 1 1 
1 1 1 1 1 1 1 1 1 
1 1 1 1 1 1 1 1 1 
1 1 1 1 1 1 1 1 1 
1 1 1 1 1 1 1 1 1 
1 1 1 1 1 1 1 1 1 
1 1 1 1 1 1 1 1 1 
1 1 1 1 1 1 1 1 1 
1 1 1 1 1 1 1 1 1 
1 1 1 1 1 1 1 1 1 
1 1 1 1 1 1 1 1 1 
1 1 1 1 1 1 1 1 1 
1 1 1 1 1 1 1 1 1 
1 1 1 1 1 1 1 1 1 
1 1 1 1 1 1 1 1 1 
1 1 1 1 1 1 1 1 1 
1 1 1 1 1 1 1 1 1 
1 1 1 1 1 1 1 1 1 
1 1 1 1 1 1 1 1 1 
1 1 1 1 1 1 1 1 1 
1 1 1 1 1 1 1 1 1 
1 1 1 1 1 1 1 1 1 
1 1 1 1 1 1 1 1 1 
1 1 1 1 1 1 1 1 1 
1 1 1 1 1 1 1 1 1 
1 1 1 1 1 1 1 1 1 
1 1 1 1 1 1 1 1 1 
1 1 1 1 1 1 1 1 1 
1 1 1 1 1 1 1 1 1 
1 1 1 1 1 1 1 1 1 
1 1 1 1 1 1 1 1 1 
1 1 1 1 1 1 1 1 1 
1 1 1 1 1 1 1 1 1 
1 1 1 1 1 1 1 1 1 
1 1 1 1 1 1 1 1 1 
1 1 1 1 1 1 1 1 1 
1 1 1 1 1 1 1 1 1 
1 1 1 1 1 1 1 1 1 
1 1 1 1 1 1 1 1 1 
1 1 1 1 1 1 1 1 1 
1 1 1 1 1 1 1 1 1 
1 1 1 1 1 1 1 1 1 
1 1 1 1 1 1 1 1 1 
1 1 1 1 1 1 1 1 1 
1 1 1 1 1 1 1 1 1 
1 1 1 1 1 1 1 1 1 
1 1 1 1 1 1 1 1 1 
1 1 1 1 1 1 1 1 1 
1 1 1 1 1 1 1 1 1 
1 1 1 1 1 1 1 1 1 
1 1 1 1 1 1 1 1 1 
1 1 1 1 1 1 1 1 1 
1 1 1 1 1 1 1 1 1 
1 1 1 1 1 1 1 1 1 
1 1 1 1 1 1 1 1 1 
1 1 1 1 1 1 1 1 1 
1 1 1 1 1 1 1 1 1 
1 1 1 1 1 1 1 1 1 
1 1 1 1 1 1 1 1 1 
1 1 1 1 1 1 1 1 1 
1 1 1 1 1 1 1 1 1 
1 1 1 1 1 1 1 1 1 
1 1 1 1 1 1 1 1 1 
1 1 1 1 1 1 1 1 1 
1 1 1 1 1 1 1 1 1 
1 1 1 1 1 1 1 1 1 
1 1 1 1 1 1 1 1 1 
1 1 1 1 1 1 1 1 1 
1 1 1 1 1 1 1 1 1 
1 1 1 1 1 1 1 1 1 
1 1 1 1 1 1 1 1 1 
1 1 1 1 1 1 1 1 1 
1 1 1 1 1 1 1 1 1 
1 1 1 1 1 1 1 1 1 
1 1 1 1 1 1 1 1 1 
1 1 1 1 1 1 1 1 1 
1 1 1 1 1 1 1 1 1 
1 1 1 1 1 1 1 1 1 
1 1 1 1 1 1 1 1 1 
1 1 1 1 1 1 1 1 1 
1 1 1 1 1 1 1 1 1 
1 1 1 1 1 1 1 1 1 
1 1 1 1 1 1 1 1 1 
1 1 1 1 1 1 1 1 1 
1 1 1 1 1 1 1 1 1 
1 1 1 1 1 1 1 1 1 
1 1 1 1 1 1 1 1 1 
1 1 1 1 1 1 1 1 1 
1 1 1 1 1 1 1 1 1 
1 1 1 1 1 1 1 1 1 
1 1 1 1 1 1 1 1 1 
1 1 1 1 1 1 1 1 1 
1 1 1 1 1 1 1 1 1 
1 1 1 1 1 1 1 1 1 
1 1 1 1 1 1 1 1 1 
1 1 1 1 1 1 1 1 1 
1 1 1 1 1 1 1 1 1 
1 1 1 1 1 1 1 1 1 
1 1 1 1 1 1 1 1 1 
1 1 1 1 1 1 1 1 1 
1 1 1 1 1 1 1 1 1 
1 1 1 1 1 1 1 1 1 
1 1 1 1 1 1 1 1 1 
1 1 1 1 1 1 1 1 1 
1 1 1 1 1 1 1 1 1 
1 1 1 1 1 1 1 1 1 
1 1 1 1 1 1 1 1 1 
1 1 1 1 1 1 1 1 1 
1 1 1 1 1 1 1 1 1 
1 1 1 1 1 1 1 1 1 
1 1 1 1 1 1 1 1 1 
1 1 1 1 1 1 1 1 1 
1 1 1 1 1 1 1 1 1 
1 1 1 1 1 1 1 1 1 
1 1 1 1 1 1 1 1 1 
1 1 1 1 1 1 1 1 1 
1 1 1 1 1 1 1 1 1 
1 1 1 1 1 1 1 1 1 
1 1 1 1 1 1 1 1 1 
1 1 1 1 1 1 1 1 1 
1 1 1 1 1 1 1 1 1 
1 1 1 1 1 1 1 1 1 
1 1 1 1 1 1 1 1 1 
1 1 1 1 1 1 1 1 1 
1 1 1 1 1 1 1 1 1 
1 1 1 1 1 1 1 1 1 
1 1 1 1 1 1 1 1 1 
1 1 1 1 1 1 1 1 1 
1 1 1 1 1 1 1 1 1 
1 1 1 1 1 1 1 1 1 
1 1 1 1 1 1 1 1 1 
1 1 1 1 1 1 1 1 1 
1 1 1 1 1 1 1 1 1 
1 1 1 1 1 1 1 1 1 
1 1 1 1 1 1 1 1 1 
1 1 1 1 1 1 1 1 1 
1 1 1 1 1 1 1 1 1 
1 1 1 1 1 1 1 1 1 
1 1 1 1 1 1 1 1 1 
1 1 1 1 1 1 1 1 1 
1 1 1 1 1 1 1 1 1 
1 1 1 1 1 1 1 1 1 
1 1 1 1 1 1 1 1 1 
1 1 1 1 1 1 1 1 1 
1 1 1 1 1 1 1 1 1 
1 1 1 1 1 1 1 1 1 
1 1 1 1 1 1 1 1 1 
1 1 1 1 1 1 1 1 1 
1 1 1 1 1 1 1 1 1 
1 1 1 1 1 1 1 1 1 
1 1 1 1 1 1 1 1 1 
1 1 1 1 1 1 1 1 1 
1 1 1 1 1 1 1 1 1 
1 1 1 1 1 1 1 1 1 
1 1 1 1 1 1 1 1 1 
1 1 1 1 1 1 1 1 1 
1 1 1 1 1 1 1 1 1 
1 1 1 1 1 1 1 1 1 
1 1 1 1 1 1 1 1 1 
1 1 1 1 1 1 1 1 1 
1 1 1 1 1 1 1 1 1 
1 1 1 1 1 1 1 1 1 
1 1 1 1 1 1 1 1 1 
1 1 1 1 1 1 1 1 1 
1 1 1 1 1 1 1 1 1 
1 1 1 1 1 1 1 1 1 
1 1 1 1 1 1 1 1 1 
1 1 1 1 1 1 1 1 1 
1 1 1 1 1 1 1 1 1 
1 1 1 1 1 1 1 1 1 
1 1 1 1 1 1 1 1 1 
1 1 1 1 1 1 1 1 1 
1 1 1 1 1 1 1 1 1 
1 1 1 1 1 1 1 1 1 
1 1 1 1 1 1 1 1 1 
1 1 1 1 1 1 1 1 1 
1 1 1 1 1 1 1 1 1 
1 1 1 1 1 1 1 1 1 
1 1 1 1 1 1 1 1 1 
1 1 1 1 1 1 1 1 1 
1 1 1 1 1 1 1 1 1 
1 1 1 1 1 1 1 1 1 
1 1 1 1 1 1 1 1 1 
1 1 1 1 1 1 1 1 1 
1 1 1 1 1 1 1 1 1 
1 1 1 1 1 1 1 1 1 
1 1 1 1 1 1 1 1 1 
1 1 1 1 1 1 1 1 1 
1 1 1 1 1 1 1 1 1 
1 1 1 1 1 1 1 1 1 
1 1 1 1 1 1 1 1 1 
1 1 1 1 1 1 1 1 1 
1 1 1 1 1 1 1 1 1 
1 1 1 1 1 1 1 1 1 
1 1 1 1 1 1 1 1 1 
1 1 1 1 1 1 1 1 1 
1 1 1 1 1 1 1 1 1 
1 1 1 1 1 1 1 1 1 
1 1 1 1 1 1 1 1 1 
1 1 1 1 1 1 1 1 1 
1 1 1 1 1 1 1 1 1 
1 1 1 1 1 1 1 1 1 
1 1 1 1 1 1 1 1 1 
1 1 1 1 1 1 1 1 1 
1 1 1 1 1 1 1 1 1 
1 1 1 1 1 1 1 1 1 
1 1 1 1 1 1 1 1 1 
1 1 1 1 1 1 1 1 1 
1 1 1 1 1 1 1 1 1 
1 1 1 1 1 1 1 1 1 
1 1 1 1 1 1 1 1 1 
1 1 1 1 1 1 1 1 1 
1 1 1 1 1 1 1 1 1 
1 1 1 1 1 1 1 1 1 
1 1 1 1 1 1 1 1 1 
1 1 1 1 1 1 1 1 1 
1 1 1 1 1 1 1 1 1 
1 1 1 1 1 1 1 1 1 
1 1 1 1 1 1 1 1 1 
1 1 1 1 1 1 1 1 1 
1 1 1 1 1 1 1 1 1 
1 1 1 1 1 1 1 1 1 
1 1 1 1 1 1 1 1 1 
1 1 1 1 1 1 1 1 1 
1 1 1 1 1 1 1 1 1 
1 1 1 1 1 1 1 1 1 
1 1 1 1 1 1 1 1 1 
1 1 1 1 1 1 1 1 1 
1 1 1 1 1 1 1 1 1 
1 1 1 1 1 1 1 1 1 
1 1 1 1 1 1 1 1 1 
1 1 1 1 1 1 1 1 1 
1 1 1 1 1 1 1 1 1 
1 1 1 1 1 1 1 1 1 
1 1 1 1 1 1 1 1 1 
1 1 1 1 1 1 1 1 1 
1 1 1 1 1 1 1 1 1 
1 1 1 1 1 1 1 1 1 
1 1 1 1 1 1 1 1 1 
1 1 1 1 1 1 1 1 1 
1 1 1 1 1 1 1 1 1 
1 1 1 1 1 1 1 1 1 
1 1 1 1 1 1 1 1 1 
1 1 1 1 1 1 1 1 1 
1 1 1 1 1 1 1 1 1 
1 1 1 1 1 1 1 1 1 
1 1 1 1 1 1 1 1 1 
1 1 1 1 1 1 1 1 1 
1 1 1 1 1 1 1 1 1 
1 1 1 1 1 1 1 1 1 
1 1 1 1 1 1 1 1 1 
1 1 1 1 1 1 1 1 1 
1 1 1 1 1 1 1 1 1 
1 1 1 1 1 1 1 1 1 
1 1 1 1 1 1 1 1 1 
1 1 1 1 1 1 1 1 1 
1 1 1 1 1 1 1 1 1 
1 1 1 1 1 1 1 1 1 
1 1 1 1 1 1 1 1 1 
1 1 1 1 1 1 1 1 1 
1 1 1 1 1 1 1 1 1 
1 1 1 1 1 1 1 1 1 
1 1 1 1 1 1 1 1 1 
1 1 1 1 1 1 1 1 1 
1 1 1 1 1 1 1 1 1 
1 1 1 1 1 1 1 1 1 
1 1 1 1 1 1 1 1 1 
1 1 1 1 1 1 1 1 1 
1 1 1 1 1 1 1 1 1 
1 1 1 1 1 1 1 1 1 
1 1 1 1 1 1 1 1 1 
1 1 1 1 1 1 1 1 1 
1 1 1 1 1 1 1 1 1 
1 1 1 1 1 1 1 1 1 
1 1 1 1 1 1 1 1 1 
1 1 1 1 1 1 1 1 1 
1 1 1 1 1 1 1 1 1 
1 1 1 1 1 1 1 1 1 
1 1 1 1 1 1 1 1 1 
1 1 1 1 1 1 1 
NORMALS normals float
-0.0101 -0.0101 -0.999898 -0.00714231 -0.707089 -0.707089 -0.57735 -0.57735 -0.57735 
0.0101005 0 -0.999949 0.00717847 -0.70349 -0.710669 0.999949 0 -0.0101005 
-0.0101 -0.0101 -0.999898 -0.57735 -0.57735 -0.57735 -0.57735 -0.57735 -0.57735 
0.0101 0.0101 -0.999898 0.707089 0.707089 -0.00714231 0.710669 0.70349 -0.00717847 
-0.0101 -0.0101 -0.999898 -0.57735 -0.57735 -0.57735 -0.707089 -0.00714231 -0.707089 
0.0101 0.0101 -0.999898 0.707089 0.707089 -0.00714231 0.707089 0.707089 -0.00714231 
0 0.0101005 -0.999949 -0.999896 0.010203 -0.010203 0.70349 0.710669 -0.00717847 
0.707089 0.707089 -0.00714231 0 0.999949 -0.0101005 0 -0.0101005 -0.999949 
0 -0.707107 -0.707107 -0.70349 -0.00717847 -0.710669 0.573443 -0.579294 -0.579294 
-0.0101 0.0101 -0.999898 -0.707089 0.00714231 -0.707089 0.579294 -0.573443 -0.579294 
0.0101005 0 -0.999949 0.707107 0 -0.707107 -0.0101 0.999898 -0.0101 
0.00717847 0.70349 -0.710669 -0.0101 -0.0101 -0.999898 -0.00714231 -0.707089 -0.707089 
-0.707089 -0.00714231 -0.707089 0.0101005 0 -0.999949 0.00717847 -0.70349 -0.710669 
0.707107 0 -0.707107 0 0 -1 -0.575387 -0.575387 -0.581258 
0.575387 0.575387 -0.581258 0.579294 0.573443 -0.579294 -0.0101 -0.0101 -0.999898 
-0.00714231 -0.707089 -0.707089 -0.707089 -0.00714231 -0.707089 0 -0.707107 -0.707107 
-0.573443 -0.579294 -0.579294 0.00717847 -0.70349 -0.710669 0.707107 0 -0.707107 
0 0 -1 0 -0.999948 -0.0102036 -0.703508 0 -0.710687 
0.575387 -0.575387 -0.581258 -0.579294 -0.573443 -0.579294 -0.579294 -0.573443 -0.579294 
0.999949 0.0101005 0 -0.575387 0.575387 -0.581258 0.571439 -0.57733 -0.583221 
-0.579294 0.573443 -0.579294 -0.0101005 0 -0.999949 0 0 -1 
0 -0.703508 -0.710687 0 0 -1 0 -0.703508 -0.710687 
0 -0.0101005 -0.999949 0 -0.707107 -0.707107 -0.573443 -0.579294 -0.579294 
-0.573443 -0.579294 -0.579294 0.707107 0.707107 0 0.707107 0.707107 0 
-0.00717847 0.70349 -0.710669 0 0.703508 -0.710687 -0.575387 0.575387 -0.581258 
-0.57735 0.57735 -0.57735 -0.707089 0.00714231 -0.707089 0.707107 0.707107 0 
0.707107 0.707107 0 -0.57735 0.57735 -0.57735 -0.575387 0.581258 -0.575387 
0.703508 0.710687 0 0.707107 0.707107 0 0 1 0 
0 -0.707107 -0.707107 0 -0.999949 -0.0101005 -0.70349 -0.710669 -0.00717847 
0.573443 -0.579294 -0.579294 -0.707089 -0.00714231 -0.707089 -0.707089 -0.707089 -0.00714231 
-0.999898 -0.0101 -0.0101 0.573443 -0.579294 -0.579294 0.573443 -0.579294 -0.579294 
0.0101 -0.0101 -0.999898 0.00714231 -0.707089 -0.707089 0.999898 -0.0101 -0.0101 
-0.707089 0.00714231 -0.707089 -0.999898 0.0101 -0.0101 0.707107 0 -0.707107 
0.579294 -0.573443 -0.579294 -0.0101 0.999898 -0.0101 -0.575387 0.581258 -0.575387 
-0.00717847 0.70349 -0.710669 -0.579294 0.573443 -0.579294 0 0 -1 
0.573443 -0.579294 -0.579294 0 -0.0101005 -0.999949 0.0101 -0.0101 -0.999898 
0.0101 -0.999898 -0.0101 0.999898 -0.0101 -0.0101 -0.0101005 0 -0.999949 
-0.707107 0 -0.707107 0 0 -1 0 0 -1 
0.0101005 0 -0.999949 0.999949 0 -0.0101005 -0.0101005 0 -0.999949 
-0.579294 -0.573443 -0.579294 0 0 -1 0 0 -1 
0.0101005 0 -0.999949 0.999949 0 -0.0101005 -0.0101 -0.0101 -0.999898 
-0.57735 -0.57735 -0.57735 -0.57735 -0.57735 -0.57735 0 0 -1 
0 0 -1 0 0 -1 0.0101005 0 -0.999949 
0.579294 -0.573443 -0.579294 -0.0101 -0.0101 -0.999898 -0.57735 -0.57735 -0.57735 
-0.707089 -0.00714231 -0.707089 0 0 -1 0 0 -1 
0 0 -1 0 0 -1 0 -0.703508 -0.710687 
0.573443 -0.579294 -0.579294 0 -0.707107 -0.707107 0.0101 -0.0101 -0.999898 
0.0101 -0.999898 -0.0101 0.999898 -0.0101 -0.0101 -0.0101005 0 -0.999949 
-0.707107 0 -0.707107 0 0 -1 0 0 -1 
0 0 -1 -0.703508 0 -0.710687 0.707107 0 -0.707107 
0.999949 0 -0.0101005 -0.0101005 0 -0.999949 -0.579294 -0.573443 -0.579294 
0 0 -1 0 0 -1 0 -0.703508 -0.710687 
-0.575387 -0.575387 -0.581258 0.575387 0.575387 -0.581258 0.0101 0.0101 -0.999898 
0.999898 0.0101 -0.0101 -0.0101 -0.0101 -0.999898 -0.57735 -0.57735 -0.57735 
-0.57735 -0.57735 -0.57735 0 0 -1 0 0 -1 
-0.703508 0 -0.710687 0.707089 0.00714231 -0.707089 0.707089 0.707089 -0.00714231 
0.707089 0.707089 -0.00714231 -0.707089 -0.00714231 -0.707089 -0.00714231 -0.707089 -0.707089 
-0.999898 -0.0101 -0.0101 0 -0.710687 -0.703508 0.573443 -0.579294 -0.579294 
-0.573443 -0.579294 -0.579294 0 -0.703508 -0.710687 0 -0.703508 -0.710687 
0 -0.703508 -0.710687 -0.575387 -0.575387 -0.581258 0.707107 0.707107 0 
0.707089 0.707089 -0.00714231 -0.0101 0.0101 -0.999898 -0.999898 0.0101 -0.0101 
-0.573443 0.579294 -0.579294 0.707107 0.707107 0 0.707107 0.707107 0 
-0.0101 0.999898 -0.0101 -0.70349 0.710669 -0.00717847 -0.00717847 0.70349 -0.710669 
-0.710669 0.70349 -0.00717847 0 0.703508 -0.710687 -0.575387 0.575387 -0.581258 
0.707107 0.707107 0 0.707107 0.707107 0 -0.0101 0.0101 -0.999898 
-0.999898 0.0101 -0.0101 0 0.0101005 -0.999949 0 0.0101005 -0.999949 
-0.573443 0.579294 -0.579294 0.707107 0.707107 0 0.707107 0.707107 0 
-0.0101 0.999898 -0.0101 0 0.999949 -0.0101005 0 0.999949 -0.0101005 
0 0.999949 -0.0101005 0.0101005 0.999949 0 -0.0101005 -0.999949 0 
-0.707107 -0.707107 0 0.573443 -0.579294 -0.579294 0 -0.707107 -0.707107 
0.00714231 -0.707089 -0.707089 0.00714231 -0.707089 -0.707089 0.707089 -0.00714231 -0.707089 
-0.707107 -0.707107 0 -0.999949 -0.0101005 0 0.581258 -0.575387 -0.575387 
-0.999949 0.0101005 0 0.57735 -0.57735 -0.57735 0.57735 -0.57735 -0.57735 
0.57735 -0.57735 -0.57735 -0.579294 0.579294 -0.573443 -0.579294 0.573443 -0.579294 
-0.579294 0.573443 -0.579294 0.579294 -0.579294 -0.573443 0.999949 -0.0101005 0 
-0.707107 0 -0.707107 -0.707107 0 -0.707107 1 0 0 
-0.579294 -0.573443 -0.579294 -0.579294 -0.573443 -0.579294 0.581258 -0.575387 -0.575387 
-0.0101005 0 -0.999949 -0.00717847 -0.70349 -0.710669 -0.707107 0 -0.707107 
0 -0.0101005 -0.999949 0 -0.707107 -0.707107 -0.573443 -0.579294 -0.579294 
-0.573443 -0.579294 -0.579294 0.57735 -0.57735 -0.57735 0.57735 -0.57735 -0.57735 
0.57735 -0.57735 -0.57735 -0.579294 0.573443 -0.579294 -0.579294 0.573443 -0.579294 
-0.707107 0 -0.707107 0.579294 -0.579294 -0.573443 0.999949 -0.0101005 0 
-0.707107 0 -0.707107 -0.707107 0 -0.707107 1 0 0 
-0.579294 -0.573443 -0.579294 -0.579294 -0.573443 -0.579294 0.999949 0.0101005 0 
-0.0101005 0 -0.999949 -0.010203 -0.999896 -0.010203 -0.999949 0 -0.0101005 
0 -0.707107 -0.707107 0 -0.707107 -0.707107 0 -0.707107 -0.707107 
0 -0.707107 -0.707107 -0.573443 -0.579294 -0.579294 -0.573443 -0.579294 -0.579294 
0.707107 0.707107 0 0.707107 0.707107 0 -0.710669 0.70349 -0.00717847 
-0.710687 0.703508 0 0.707107 0.707107 0 0.707107 0.707107 0 
-0.999949 0.0101005 0 0.707107 0.707107 0 0.707107 0.707107 0 
-0.0101005 0.999949 0 -0.703508 0.710687 0 -0.710687 0.703508 0 
0.707107 0.707107 0 0.707107 0.707107 0 -0.999949 0.0101005 0 
0.707107 0.707107 0 0.707107 0.707107 0 -0.0101005 0.999949 0 
0 1 0 0 1 0 0 1 0 
0.0101005 0.999949 0 -0.0101 -0.0101 -0.999898 -0.0101 -0.999898 -0.0101 
-0.707089 -0.707089 -0.00714231 0 -0.0101005 -0.999949 0 -0.999949 -0.0101005 