# vtk DataFile Version 3.0
vtk output
ASCII
DATASET POLYDATA
POINTS 6494 float
122 86 30.01 122 85.01 31 121.01 86 31 
122.99 86 31 122 87 30.01 121.01 87 31 
123 86.01 31 123 87 30.01 123.99 87 31 
122 87.99 31 123 87.99 31 128 93 30.01 
128 92.01 31 127.01 93 31 128.99 93 31 
128 94 30.01 127.01 94 31 128.99 94 31 
128 94.99 31 123 82 31.01 123 81.01 32 
122.01 82 32 124 82 31.01 124 81.01 32 
124.99 82 32 123 83 31.01 122.01 83 32 
124 83 31.01 124.99 83 32 123 84 31.01 
122.01 84 32 124 84 31.01 125 83.01 32 
125 84 31.01 126 84 31.01 126 83.01 32 
126.99 84 32 122 85 31.01 122 84.01 32 
121.01 85 32 123 85 31.01 124 85 31.01 
125 85 31.01 125.99 85 32 126 84.99 32 
121 86 31.01 121 85.01 32 120.01 86 32 
123 86 31.01 124 86 31.01 124.99 86 32 
125 85.99 32 120 87 31.01 120 86.01 32 
119.01 87 32 121 87 31.01 124 87 31.01 
124.99 87 32 120 87.99 32 120.01 88 32 
121 88 31.01 122 88 31.01 123 88 31.01 
124 88 31.01 124.99 88 32 121 89 31.01 
120.01 89 32 122 89 31.01 123 89 31.01 
124 89 31.01 124.99 89 32 121 90 31.01 
120.01 90 32 122 90 31.01 123 90 31.01 
124 90 31.01 124.99 90 32 121 91 31.01 
120.01 91 32 122 91 31.01 123 91 31.01 
124 91 31.01 124.99 91 32 121 92 31.01 
120.01 92 32 122 92 31.01 123 92 31.01 
124 92 31.01 125 91.01 32 125 92 31.01 
126 92 31.01 126 91.01 32 127 92 31.01 
127 91.01 32 128 92 31.01 128 91.01 32 
128.99 92 32 121 93 31.01 120.01 93 32 
122 93 31.01 123 93 31.01 124 93 31.01 
125 93 31.01 126 93 31.01 127 93 31.01 
128.99 93 32 121 93.99 32 122 93.99 32 
122.01 94 32 123 94 31.01 124 94 31.01 
125 94 31.01 126 94 31.01 127 94 31.01 
129 93.01 32 129 94 31.01 130 94 31.01 
130 93.01 32 130.99 94 32 123 95 31.01 
122.01 95 32 124 95 31.01 125 95 31.01 
126 95 31.01 127 95 31.01 128 95 31.01 
129 95 31.01 129.99 95 32 130 94.99 32 
123 95.99 32 124 95.99 32 124.01 96 32 
125 96 31.01 126 96 31.01 126.99 96 32 
127 95.99 32 128 95.99 32 129 95.99 32 
125 97 31.01 124.01 97 32 125.99 97 32 
126 96.99 32 125 97.99 32 123 81 32.01 
123 80.01 33 122.01 81 33 123.99 81 33 
122 82 32.01 122 81.01 33 121.01 82 33 
124 81.01 33 124.99 82 33 122 83 32.01 
121.01 83 33 124.99 83 33 122 84 32.01 
121.01 84 33 125 83.01 33 126 83.01 33 
126.99 84 33 121 85 32.01 121 84.01 33 
120.01 85 33 125.99 85 33 126 84.99 33 
120.01 86 33 124.99 86 33 125 85.99 33 
120 86.01 33 119.01 87 33 124.99 87 33 
120 88 32.01 119.01 88 33 124.99 88 33 
120 89 32.01 119.01 89 33 124.99 89 33 
120 89.99 33 120.01 90 33 124.99 90 33 
120.01 91 33 125 90.01 33 125 91 32.01 
126 91 32.01 126 90.01 33 127 91 32.01 
127 90.01 33 128 91 32.01 128 90.01 33 
128.99 91 33 120.01 92 33 128.99 92 33 
120.01 93 33 129 92.01 33 129 93 32.01 
130 93 32.01 130 92.01 33 131 93 32.01 
131 92.01 33 131.99 93 33 121 93.99 33 
122 94 32.01 121.01 94 33 131 93.99 33 
130.99 94 33 122 94.99 33 122.01 95 33 
129.99 95 33 130 94.99 33 123 95.99 33 
124 96 32.01 123.01 96 33 126.99 96 33 
127 95.99 33 128 95.99 33 129 95.99 33 
124 96.99 33 124.01 97 33 125.99 97 33 
126 96.99 33 125 97.99 33 123 78 33.01 
123 77.01 34 122.01 78 34 124 78 33.01 
124 77.01 34 124.99 78 34 123 79 33.01 
122.01 79 34 124 79 33.01 124.99 79 34 
123 80 33.01 122.01 80 34 124 80 33.01 
124.99 80 34 122 81 33.01 122 80.01 34 
121.01 81 34 124 81 33.01 124.99 81 34 
121 82 33.01 121 81.01 34 120.01 82 34 
124.99 82 34 121 83 33.01 120.01 83 34 
124.99 83 34 121 84 33.01 120.01 84 34 
125 83.01 34 126 83.01 34 126.99 84 34 
120.01 85 34 126 85 33.01 126.99 85 34 
120.01 86 34 125 86 33.01 126 86 33.01 
126.99 86 34 120 87 33.99 120.01 87 34 
125 87 33.01 126 87 33.01 126.99 87 34 
120 88 33.99 120.01 88 34 125 88 33.01 
126 88 33.01 127 87.01 34 127 88 33.01 
128 88 33.01 128 87.01 34 128.99 88 34 
120 88.01 34 119.01 89 34 125 89 33.01 
126 89 33.01 127 89 33.01 128 89 33.01 
128.99 89 34 120 89.99 34 120.01 90 34 
125 90 33.01 126 90 33.01 127 90 33.01 
128 90 33.01 129 89.01 34 129 90 33.01 
130 90 33.01 130 89.01 34 130.99 90 34 
120.01 91 34 129 91 33.01 130 91 33.01 
130.99 91 34 120.01 92 34 129 92 33.01 
130 92 33.01 131 91.01 34 131 92 33.01 
132 92 33.01 132 91.01 34 132.99 92 34 
120.01 93 34 132 93 33.01 132.99 93 34 
121 94 33.01 120.01 94 34 131 94 33.01 
132 94 33.01 132.99 94 34 121 95 33.01 
120.01 95 34 122 95 33.01 130 95 33.01 
131 95 33.01 131.99 95 34 132 94.99 34 
121 95.99 34 122 95.99 34 123 96 33.01 
122.01 96 34 127 96 33.01 128 96 33.01 
128.99 96 34 129 95.99 34 130 95.99 34 
131 95.99 34 123 97 33.01 122.01 97 34 
124 97 33.01 126 97 33.01 127 97 33.01 
127.99 97 34 128 96.99 34 123 97.99 34 
124 97.99 34 125 97.99 34 126 97.99 34 
127 97.99 34 122 77 34.01 122 76.01 35 
121.01 77 35 122.99 77 35 122 78 34.01 
121.01 78 35 123 77.01 35 124 77.01 35 
124.99 78 35 122 79 34.01 121.01 79 35 
124.99 79 35 122 80 34.01 121.01 80 35 
124.99 80 35 121 81 34.01 121 80.01 35 
120.01 81 35 124.99 81 35 120.01 82 35 
124.99 82 35 120 83 34.01 120 82.01 35 
119.01 83 35 125 82.01 35 125 83 34.01 
125.99 83 35 120 84 34.01 119.01 84 35 
126 83.01 35 126.99 84 35 120 85 34.01 
119.01 85 35 126.99 85 35 120 86 34.01 
119.01 86 35 126.99 86 35 120 87 34.01 
119.01 87 35 127 86.01 35 127 87 34.01 
128 87 34.01 128 86.01 35 128.99 87 35 
120 88 34.01 119.01 88 35 128.99 88 35 
119 89 34.01 119 88.01 35 118.01 89 35 
129 88.01 35 129 89 34.01 130 89 34.01 
130 88.01 35 130.99 89 35 119 89.99 35 
120 90 34.01 119.01 90 35 130.99 90 35 
120 91 34.01 119.01 91 35 131 90.01 35 
131 91 34.01 132 91 34.01 132 90.01 35 
132.99 91 35 120 92 34.01 119.01 92 35 
132.99 92 35 120 93 34.01 119.01 93 35 
132.99 93 35 120 94 34.01 119.01 94 35 
132.99 94 35 120 94.99 35 120.01 95 35 
131.99 95 35 132 94.99 35 121 95.99 35 
122 96 34.01 121.01 96 35 128.99 96 35 
129 95.99 35 130 95.99 35 131 95.99 35 
122 96.99 35 122.01 97 35 128 97 34.01 
128.99 97 35 123 97.99 35 124 97.99 35 
125 97.99 35 126 97.99 35 127 97.99 35 
128 97.99 35 113 64 35.01 113 63.01 36 
112.01 64 36 114 64 35.01 114 63.01 36 
115 64 35.01 115 63.01 36 116 64 35.01 
116 63.01 36 116.99 64 36 113 65 35.01 
112.01 65 36 114 65 35.01 115 65 35.01 
116 65 35.01 116.99 65 36 113 65.99 36 
114 65.99 36 114.01 66 36 115 66 35.01 
116 66 35.01 117 65.01 36 117 66 35.01 
118 66 35.01 118 65.01 36 118.99 66 36 
115 67 35.01 114.01 67 36 116 67 35.01 
117 67 35.01 118 67 35.01 118.99 67 36 
115 67.99 36 116 67.99 36 116.01 68 36 
117 68 35.01 118 68 35.01 119 67.01 36 
119 68 35.01 120 68 35.01 120 67.01 36 
120.99 68 36 117 69 35.01 116.01 69 36 
118 69 35.01 119 69 35.01 120 69 35.01 
120.99 69 36 117 70 35.01 116.01 70 36 
118 70 35.01 119 70 35.01 120 70 35.01 
120.99 70 36 117 71 35.01 116.01 71 36 
118 71 35.01 119 71 35.01 120 71 35.01 
120.99 71 36 117 71.99 36 118 71.99 36 
118.01 72 36 119 72 35.01 120 72 35.01 
121 71.01 36 121 72 35.01 122 72 35.01 
122 71.01 36 122.99 72 36 119 73 35.01 
118.01 73 36 120 73 35.01 121 73 35.01 
122 73 35.01 122.99 73 36 119 74 35.01 
118.01 74 36 120 74 35.01 121 74 35.01 
122 74 35.01 122.99 74 36 119 75 35.01 
118.01 75 36 120 75 35.01 121 75 35.01 
122 75 35.01 122.99 75 36 119 75.99 36 
120 75.99 36 120.01 76 36 121 76 35.01 
122 76 35.01 122.99 76 36 121 77 35.01 
120.01 77 36 122.99 77 36 121 78 35.01 
120.01 78 36 123 77.01 36 124 77.01 36 
124.99 78 36 121 79 35.01 120.01 79 36 
124.99 79 36 121 80 35.01 120.01 80 36 
124.99 80 36 120.01 81 36 124.99 81 36 
120.01 82 36 125 81.01 36 125 82 35.01 
126 82 35.01 126 81.01 36 126.99 82 36 
120 82.01 36 119.01 83 36 126 83 35.01 
126.99 83 36 119 84 35.01 119 83.01 36 
118.01 84 36 126.99 84 36 119 85 35.01 
118.01 85 36 126.99 85 36 119 86 35.01 
118.01 86 36 127 85.01 36 127 86 35.01 
128 86 35.01 128 85.01 36 128.99 86 36 
119 87 35.01 118.01 87 36 128.99 87 36 
119 88 35.01 118.01 88 36 129 87.01 36 
129 88 35.01 130 88 35.01 130 87.01 36 
130.99 88 36 118.01 89 36 130.99 89 36 
119 90 35.01 118.01 90 36 131 89.01 36 
131 90 35.01 132 90 35.01 132 89.01 36 
133 90 35.01 133 89.01 36 134 90 35.01 
134 89.01 36 134.99 90 36 119 91 35.01 
118.01 91 36 133 91 35.01 134 91 35.01 
134.99 91 36 119 91.99 36 120 91.99 36 
120 92 35.99 120.01 92 36 133 92 35.01 
134 92 35.01 134.99 92 36 120 93 35.99 
120.01 93 36 133 93 35.01 133.99 93 36 
134 92.99 36 120 94 35.99 120.01 94 36 
132.99 94 36 133 93.99 36 120.01 95 36 
131.99 95 36 132 94.99 36 121 95.99 36 
122 95.99 36 122 96 35.99 122.01 96 36 
129 96 35.01 130 96 35.01 130.99 96 36 
131 95.99 36 122.01 97 36 129 97 35.01 
129.99 97 36 130 96.99 36 123 97.99 36 
124 97.99 36 125 97.99 36 126 97.99 36 
127 98 35.01 126.01 98 36 128 98 35.01 
128.99 98 36 129 97.99 36 127 99 35.01 
126.01 99 36 127.99 99 36 128 98.99 36 
127 99.99 36 113 63.01 37 112.01 64 37 
114 63.01 37 115 63.01 37 116 63.01 37 
116.99 64 37 112.01 65 37 116.99 65 37 
113 65.99 37 114 66 36.01 113.01 66 37 
117 65.01 37 118 65.01 37 118.99 66 37 
114 66.99 37 114.01 67 37 118.99 67 37 
115 67.99 37 116 68 36.01 115.01 68 37 
119 67.01 37 120 67.01 37 120.99 68 37 
116 69 36.01 115.01 69 37 120.99 69 37 
116 70 36.01 115.01 70 37 120.99 70 37 
116 70.99 37 116.01 71 37 121 70.01 37 
121 71 36.01 121.99 71 37 117 71.99 37 
118 72 36.01 117.01 72 37 122 71.01 37 
122.99 72 37 118 73 36.01 117.01 73 37 
122.99 73 37 118 74 36.01 117.01 74 37 
122.99 74 37 118 74.99 37 118.01 75 37 
122.99 75 37 119 75.99 37 120 76 36.01 
119.01 76 37 122.99 76 37 120 77 36.01 
119.01 77 37 123 76.01 37 123 77 36.01 
123.99 77 37 120 78 36.01 119.01 78 37 
124 77.01 37 124.99 78 37 120 79 36.01 
119.01 79 37 124.99 79 37 120 80 36.01 
119.01 80 37 124.99 80 37 120 81 36.01 
119.01 81 37 124.99 81 37 120 82 36.01 
119.01 82 37 125 81.01 37 126 81.01 37 
126.99 82 37 119 83 36.01 119 82.01 37 
118.01 83 37 126.99 83 37 118.01 84 37 
126.99 84 37 118.01 85 37 127 84.01 37 
127 85 36.01 127.99 85 37 118.01 86 37 
128 85.01 37 128.99 86 37 118.01 87 37 
129 86.01 37 129 87 36.01 130 87 36.01 
130 86.01 37 130.99 87 37 118.01 88 37 
130.99 88 37 118.01 89 37 131 88.01 37 
131 89 36.01 132 89 36.01 132 88.01 37 
[...]
POINT_DATA 6494
SCALARS scalars float
LOOKUP_TABLE default
1 1 1 1 1 1 1 1 1 
1 1 1 1 1 1 1 1 1 
1 1 1 1 1 1 1 1 1 
1 1 1 1 1 1 1 1 1 
1 1 1 1 1 1 1 1 1 
1 1 1 1 1 1 1 1 1 
1 1 1 1 1 1 1 1 1 
1 1 1 1 1 1 1 1 1 
1 1 1 1 1 1 1 1 1 
1 1 1 1 1 1 1 1 1 
1 1 1 1 1 1 1 1 1 
1 1 1 1 1 1 1 1 1 
1 1 1 1 1 1 1 1 1 
1 1 1 1 1 1 1 1 1 
1 1 1 1 1 1 1 1 1 
1 1 1 1 1 1 1 1 1 
1 1 1 1 1 1 1 1 1 
1 1 1 1 1 1 1 1 1 
1 1 1 1 1 1 1 1 1 
1 1 1 1 1 1 1 1 1 
1 1 1 1 1 1 1 1 1 
1 1 1 1 1 1 1 1 1 
1 1 1 1 1 1 1 1 1 
1 1 1 1 1 1 1 1 1 
1 1 1 1 1 1 1 1 1 
1 1 1 1 1 1 1 1 1 
1 1 1 1 1 1 1 1 1 
1 1 1 1 1 1 1 1 1 
1 1 1 1 1 1 1 1 1 
1 1 1 1 1 1 1 1 1 
1 1 1 1 1 1 1 1 1 
1 1 1 1 1 1 1 1 1 
1 1 1 1 1 1 1 1 1 
1 1 1 1 1 1 1 1 1 
1 1 1 1 1 1 1 1 1 
1 1 1 1 1 1 1 1 1 
1 1 1 1 1 1 1 1 1 
1 1 1 1 1 1 1 1 1 
1 1 1 1 1 1 1 1 1 
1 1 1 1 1 1 1 1 1 
1 1 1 1 1 1 1 1 1 
1 1 1 1 1 1 1 1 1 
1 1 1 1 1 1 1 1 1 
1 1 1 1 1 1 1 1 1 
1 1 1 1 1 1 1 1 1 
1 1 1 1 1 1 1 1 1 
1 1 1 1 1 1 1 1 1 
1 1 1 1 1 1 1 1 1 
1 1 1 1 1 1 1 1 1 
1 1 1 1 1 1 1 1 1 
1 1 1 1 1 1 1 1 1 
1 1 1 1 1 1 1 1 1 
1 1 1 1 1 1 1 1 1 
1 1 1 1 1 1 1 1 1 
1 1 1 1 1 1 1 1 1 
1 1 1 1 1 1 1 1 1 
1 1 1 1 1 1 1 1 1 
1 1 1 1 1 1 1 1 1 
1 1 1 1 1 1 1 1 1 
1 1 1 1 1 1 1 1 1 
1 1 1 1 1 1 1 1 1 
1 1 1 1 1 1 1 1 1 
1 1 1 1 1 1 1 1 1 
1 1 1 1 1 1 1 1 1 
1 1 1 1 1 1 1 1 1 
1 1 1 1 1 1 1 1 1 
1 1 1 1 1 1 1 1 1 
1 1 1 1 1 1 1 1 1 
1 1 1 1 1 1 1 1 1 
1 1 1 1 1 1 1 1 1 
1 1 1 1 1 1 1 1 1 
1 1 1 1 1 1 1 1 1 
1 1 1 1 1 1 1 1 1 
1 1 1 1 1 1 1 1 1 
1 1 1 1 1 1 1 1 1 
1 1 1 1 1 1 1 1 1 
1 1 1 1 1 1 1 1 1 
1 1 1 1 1 1 1 1 1 
1 1 1 1 1 1 1 1 1 
1 1 1 1 1 1 1 1 1 
1 1 1 1 1 1 1 1 1 
1 1 1 1 1 1 1 1 1 
1 1 1 1 1 1 1 1 1 
1 1 1 1 1 1 1 1 1 
1 1 1 1 1 1 1 1 1 
1 1 1 1 1 1 1 1 1 
1 1 1 1 1 1 1 1 1 
1 1 1 1 1 1 1 1 1 
1 1 1 1 1 1 1 1 1 
1 1 1 1 1 1 1 1 1 
1 1 1 1 1 1 1 1 1 
1 1 1 1 1 1 1 1 1 
1 1 1 1 1 1 1 1 1 
1 1 1 1 1 1 1 1 1 
1 1 1 1 1 1 1 1 1 
1 1 1 1 1 1 1 1 1 
1 1 1 1 1 1 1 1 1 
1 1 1 1 1 1 1 1 1 
1 1 1 1 1 1 1 1 1 
1 1 1 1 1 1 1 1 1 
1 1 1 1 1 1 1 1 1 
1 1 1 1 1 1 1 1 1 
1 1 1 1 1 1 1 1 1 
1 1 1 1 1 1 1 1 1 
1 1 1 1 1 1 1 1 1 
1 1 1 1 1 1 1 1 1 
1 1 1 1 1 1 1 1 1 
1 1 1 1 1 1 1 1 1 
1 1 1 1 1 1 1 1 1 
1 1 1 1 1 1 1 1 1 
1 1 1 1 1 1 1 1 1 
1 1 1 1 1 1 1 1 1 
1 1 1 1 1 1 1 1 1 
1 1 1 1 1 1 1 1 1 
1 1 1 1 1 1 1 1 1 
1 1 1 1 1 1 1 1 1 
1 1 1 1 1 1 1 1 1 
1 1 1 1 1 1 1 1 1 
1 1 1 1 1 1 1 1 1 
1 1 1 1 1 1 1 1 1 
1 1 1 1 1 1 1 1 1 
1 1 1 1 1 1 1 1 1 
1 1 1 1 1 1 1 1 1 
1 1 1 1 1 1 1 1 1 
1 1 1 1 1 1 1 1 1 
1 1 1 1 1 1 1 1 1 
1 1 1 1 1 1 1 1 1 
1 1 1 1 1 1 1 1 1 
1 1 1 1 1 1 1 1 1 
1 1 1 1 1 1 1 1 1 
1 1 1 1 1 1 1 1 1 
1 1 1 1 1 1 1 1 1 
1 1 1 1 1 1 1 1 1 
1 1 1 1 1 1 1 1 1 
1 1 1 1 1 1 1 1 1 
1 1 1 1 1 1 1 1 1 
1 1 1 1 1 1 1 1 1 
1 1 1 1 1 1 1 1 1 
1 1 1 1 1 1 1 1 1 
1 1 1 1 1 1 1 1 1 
1 1 1 1 1 1 1 1 1 
1 1 1 1 1 1 1 1 1 
1 1 1 1 1 1 1 1 1 
1 1 1 1 1 1 1 1 1 
1 1 1 1 1 1 1 1 1 
1 1 1 1 1 1 1 1 1 
1 1 1 1 1 1 1 1 1 
1 1 1 1 1 1 1 1 1 
1 1 1 1 1 1 1 1 1 
1 1 1 1 1 1 1 1 1 
1 1 1 1 1 1 1 1 1 
1 1 1 1 1 1 1 1 1 
1 1 1 1 1 1 1 1 1 
1 1 1 1 1 1 1 1 1 
1 1 1 1 1 1 1 1 1 
1 1 1 1 1 1 1 1 1 
1 1 1 1 1 1 1 1 1 
1 1 1 1 1 1 1 1 1 
1 1 1 1 1 1 1 1 1 
1 1 1 1 1 1 1 1 1 
1 1 1 1 1 1 1 1 1 
1 1 1 1 1 1 1 1 1 
1 1 1 1 1 1 1 1 1 
1 1 1 1 1 1 1 1 1 
1 1 1 1 1 1 1 1 1 
1 1 1 1 1 1 1 1 1 
1 1 1 1 1 1 1 1 1 
1 1 1 1 1 1 1 1 1 
1 1 1 1 1 1 1 1 1 
1 1 1 1 1 1 1 1 1 
1 1 1 1 1 1 1 1 1 
1 1 1 1 1 1 1 1 1 
1 1 1 1 1 1 1 1 1 
1 1 1 1 1 1 1 1 1 
1 1 1 1 1 1 1 1 1 
1 1 1 1 1 1 1 1 1 
1 1 1 1 1 1 1 1 1 
1 1 1 1 1 1 1 1 1 
1 1 1 1 1 1 1 1 1 
1 1 1 1 1 1 1 1 1 
1 1 1 1 1 1 1 1 1 
1 1 1 1 1 1 1 1 1 
1 1 1 1 1 1 1 1 1 
1 1 1 1 1 1 1 1 1 
1 1 1 1 1 1 1 1 1 
1 1 1 1 1 1 1 1 1 
1 1 1 1 1 1 1 1 1 
1 1 1 1 1 1 1 1 1 
1 1 1 1 1 1 1 1 1 
1 1 1 1 1 1 1 1 1 
1 1 1 1 1 1 1 1 1 
1 1 1 1 1 1 1 1 1 
1 1 1 1 1 1 1 1 1 
1 1 1 1 1 1 1 1 1 
1 1 1 1 1 1 1 1 1 
1 1 1 1 1 1 1 1 1 
1 1 1 1 1 1 1 1 1 
1 1 1 1 1 1 1 1 1 
1 1 1 1 1 1 1 1 1 
1 1 1 1 1 1 1 1 1 
1 1 1 1 1 1 1 1 1 
1 1 1 1 1 1 1 1 1 
1 1 1 1 1 1 1 1 1 
1 1 1 1 1 1 1 1 1 
1 1 1 1 1 1 1 1 1 
1 1 1 1 1 1 1 1 1 
1 1 1 1 1 1 1 1 1 
1 1 1 1 1 1 1 1 1 
1 1 1 1 1 1 1 1 1 
1 1 1 1 1 1 1 1 1 
1 1 1 1 1 1 1 1 1 
1 1 1 1 1 1 1 1 1 
1 1 1 1 1 1 1 1 1 
1 1 1 1 1 1 1 1 1 
1 1 1 1 1 1 1 1 1 
1 1 1 1 1 1 1 1 1 
1 1 1 1 1 1 1 1 1 
1 1 1 1 1 1 1 1 1 
1 1 1 1 1 1 1 1 1 
1 1 1 1 1 1 1 1 1 
1 1 1 1 1 1 1 1 1 
1 1 1 1 1 1 1 1 1 
1 1 1 1 1 1 1 1 1 
1 1 1 1 1 1 1 1 1 
1 1 1 1 1 1 1 1 1 
1 1 1 1 1 1 1 1 1 
1 1 1 1 1 1 1 1 1 
1 1 1 1 1 1 1 1 1 
1 1 1 1 1 1 1 1 1 
1 1 1 1 1 1 1 1 1 
1 1 1 1 1 1 1 1 1 
1 1 1 1 1 1 1 1 1 
1 1 1 1 1 1 1 1 1 
1 1 1 1 1 1 1 1 1 
1 1 1 1 1 1 1 1 1 
1 1 1 1 1 1 1 1 1 
1 1 1 1 1 1 1 1 1 
1 1 1 1 1 1 1 1 1 
1 1 1 1 1 1 1 1 1 
1 1 1 1 1 1 1 1 1 
1 1 1 1 1 1 1 1 1 
1 1 1 1 1 1 1 1 1 
1 1 1 1 1 1 1 1 1 
1 1 1 1 1 1 1 1 1 
1 1 1 1 1 1 1 1 1 
1 1 1 1 1 1 1 1 1 
1 1 1 1 1 1 1 1 1 
1 1 1 1 1 1 1 1 1 
1 1 1 1 1 1 1 1 1 
1 1 1 1 1 1 1 1 1 
1 1 1 1 1 1 1 1 1 
1 1 1 1 1 1 1 1 1 
1 1 1 1 1 1 1 1 1 
1 1 1 1 1 1 1 1 1 
1 1 1 1 1 1 1 1 1 
1 1 1 1 1 1 1 1 1 
1 1 1 1 1 1 1 1 1 
1 1 1 1 1 1 1 1 1 
1 1 1 1 1 1 1 1 1 
1 1 1 1 1 1 1 1 1 
1 1 1 1 1 1 1 1 1 
1 1 1 1 1 1 1 1 1 
1 1 1 1 1 1 1 1 1 
1 1 1 1 1 1 1 1 1 
1 1 1 1 1 1 1 1 1 
1 1 1 1 1 1 1 1 1 
1 1 1 1 1 1 1 1 1 
1 1 1 1 1 1 1 1 1 
1 1 1 1 1 1 1 1 1 
1 1 1 1 1 1 1 1 1 
1 1 1 1 1 1 1 1 1 
1 1 1 1 1 1 1 1 1 
1 1 1 1 1 1 1 1 1 
1 1 1 1 1 1 1 1 1 
1 1 1 1 1 1 1 1 1 
1 1 1 1 1 1 1 1 1 
1 1 1 1 1 1 1 1 1 
1 1 1 1 1 1 1 1 1 
1 1 1 1 1 1 1 1 1 
1 1 1 1 1 1 1 1 1 
1 1 1 1 1 1 1 1 1 
1 1 1 1 1 1 1 1 1 
1 1 1 1 1 1 1 1 1 
1 1 1 1 1 1 1 1 1 
1 1 1 1 1 1 1 1 1 
1 1 1 1 1 1 1 1 1 
1 1 1 1 1 1 1 1 1 
1 1 1 1 1 1 1 1 1 
1 1 1 1 1 1 1 1 1 
1 1 1 1 1 1 1 1 1 
1 1 1 1 1 1 1 1 1 
1 1 1 1 1 1 1 1 1 
1 1 1 1 1 1 1 1 1 
1 1 1 1 1 1 1 1 1 
1 1 1 1 1 1 1 1 1 
1 1 1 1 1 1 1 1 1 
1 1 1 1 1 1 1 1 1 
1 1 1 1 1 1 1 1 1 
1 1 1 1 1 1 1 1 1 
1 1 1 1 1 1 1 1 1 
1 1 1 1 1 1 1 1 1 
1 1 1 1 1 1 1 1 1 
1 1 1 1 1 1 1 1 1 
1 1 1 1 1 1 1 1 1 
1 1 1 1 1 1 1 1 1 
1 1 1 1 1 1 1 1 1 
1 1 1 1 1 1 1 1 1 
1 1 1 1 1 1 1 1 1 
1 1 1 1 1 1 1 1 1 
1 1 1 1 1 1 1 1 1 
1 1 1 1 1 1 1 1 1 
1 1 1 1 1 1 1 1 1 
1 1 1 1 1 1 1 1 1 
1 1 1 1 1 1 1 1 1 
1 1 1 1 1 1 1 1 1 
1 1 1 1 1 1 1 1 1 
1 1 1 1 1 1 1 1 1 
1 1 1 1 1 1 1 1 1 
1 1 1 1 1 1 1 1 1 
1 1 1 1 1 1 1 1 1 
1 1 1 1 1 1 1 1 1 
1 1 1 1 1 1 1 1 1 
1 1 1 1 1 1 1 1 1 
1 1 1 1 1 1 1 1 1 
1 1 1 1 1 1 1 1 1 
1 1 1 1 1 1 1 1 1 
1 1 1 1 1 1 1 1 1 
1 1 1 1 1 1 1 1 1 
1 1 1 1 1 1 1 1 1 
1 1 1 1 1 1 1 1 1 
1 1 1 1 1 1 1 1 1 
1 1 1 1 1 1 1 1 1 
1 1 1 1 1 1 1 1 1 
1 1 1 1 1 1 1 1 1 
1 1 1 1 1 1 1 1 1 
1 1 1 1 1 1 1 1 1 
1 1 1 1 1 1 1 1 1 
1 1 1 1 1 1 1 1 1 
1 1 1 1 1 1 1 1 1 
1 1 1 1 1 1 1 1 1 
1 1 1 1 1 1 1 1 1 
1 1 1 1 1 1 1 1 1 
1 1 1 1 1 1 1 1 1 
1 1 1 1 1 1 1 1 1 
1 1 1 1 1 1 1 1 1 
1 1 1 1 1 1 1 1 1 
1 1 1 1 1 1 1 1 1 
1 1 1 1 1 1 1 1 1 
1 1 1 1 1 1 1 1 1 
1 1 1 1 1 1 1 1 1 
1 1 1 1 1 1 1 1 1 
1 1 1 1 1 1 1 1 1 
1 1 1 1 1 1 1 1 1 
1 1 1 1 1 1 1 1 1 
1 1 1 1 1 1 1 1 1 
1 1 1 1 1 1 1 1 1 
1 1 1 1 1 1 1 1 1 
1 1 1 1 1 1 1 1 1 
1 1 1 1 1 1 1 1 1 
1 1 1 1 1 1 1 1 1 
1 1 1 1 1 1 1 1 1 
1 1 1 1 1 1 1 1 1 
1 1 1 1 1 1 1 1 1 
1 1 1 1 1 1 1 1 1 
1 1 1 1 1 1 1 1 1 
1 1 1 1 1 1 1 1 1 
1 1 1 1 1 1 1 1 1 
1 1 1 1 1 1 1 1 1 
1 1 1 1 1 1 1 1 1 
1 1 1 1 1 1 1 1 1 
1 1 1 1 1 1 1 1 1 
1 1 1 1 1 1 1 1 1 
1 1 1 1 1 1 1 1 1 
1 1 1 1 1 1 1 1 1 
1 1 1 1 1 1 1 1 1 
1 1 1 1 1 1 1 1 1 
1 1 1 1 1 1 1 1 1 
1 1 1 1 1 1 1 1 1 
1 1 1 1 1 1 1 1 1 
1 1 1 1 1 1 1 1 1 
1 1 1 1 1 1 1 1 1 
1 1 1 1 1 1 1 1 1 
1 1 1 1 1 1 1 1 1 
1 1 1 1 1 1 1 1 1 
1 1 1 1 1 1 1 1 1 
1 1 1 1 1 1 1 1 1 
1 1 1 1 1 1 1 1 1 
1 1 1 1 1 1 1 1 1 
1 1 1 1 1 1 1 1 1 
1 1 1 1 1 1 1 1 1 
1 1 1 1 1 1 1 1 1 
1 1 1 1 1 1 1 1 1 
1 1 1 1 1 1 1 1 1 
1 1 1 1 1 1 1 1 1 
1 1 1 1 1 1 1 1 1 
1 1 1 1 1 1 1 1 1 
1 1 1 1 1 1 1 1 1 
1 1 1 1 1 1 1 1 1 
1 1 1 1 1 1 1 1 1 
1 1 1 1 1 1 1 1 1 
1 1 1 1 1 1 1 1 1 
1 1 1 1 1 1 1 1 1 
1 1 1 1 1 1 1 1 1 
1 1 1 1 1 1 1 1 1 
1 1 1 1 1 1 1 1 1 
1 1 1 1 1 1 1 1 1 
1 1 1 1 1 1 1 1 1 
1 1 1 1 1 1 1 1 1 
1 1 1 1 1 1 1 1 1 
1 1 1 1 1 1 1 1 1 
1 1 1 1 1 1 1 1 1 
1 1 1 1 1 1 1 1 1 
1 1 1 1 1 1 1 1 1 
1 1 1 1 1 1 1 1 1 
1 1 1 1 1 1 1 1 1 
1 1 1 1 1 1 1 1 1 
1 1 1 1 1 1 1 1 1 
1 1 1 1 1 1 1 1 1 
1 1 1 1 1 1 1 1 1 
1 1 1 1 1 1 1 1 1 
1 1 1 1 1 1 1 1 1 
1 1 1 1 1 1 1 1 1 
1 1 1 1 1 1 1 1 1 
1 1 1 1 1 1 1 1 1 
1 1 1 1 1 1 1 1 1 
1 1 1 1 1 1 1 1 1 
1 1 1 1 1 1 1 1 1 
1 1 1 1 1 1 1 1 1 
1 1 1 1 1 1 1 1 1 
1 1 1 1 1 1 1 1 1 
1 1 1 1 1 1 1 1 1 
1 1 1 1 1 1 1 1 1 
1 1 1 1 1 1 1 1 1 
1 1 1 1 1 1 1 1 1 
1 1 1 1 1 1 1 1 1 
1 1 1 1 1 1 1 1 1 
1 1 1 1 1 1 1 1 1 
1 1 1 1 1 1 1 1 1 
1 1 1 1 1 1 1 1 1 
1 1 1 1 1 1 1 1 1 
1 1 1 1 1 1 1 1 1 
1 1 1 1 1 1 1 1 1 
1 1 1 1 1 1 1 1 1 
1 1 1 1 1 1 1 1 1 
1 1 1 1 1 1 1 1 1 
1 1 1 1 1 1 1 1 1 
1 1 1 1 1 1 1 1 1 
1 1 1 1 1 1 1 1 1 
1 1 1 1 1 1 1 1 1 
1 1 1 1 1 1 1 1 1 
1 1 1 1 1 1 1 1 1 
1 1 1 1 1 1 1 1 1 
1 1 1 1 1 1 1 1 1 
1 1 1 1 1 1 1 1 1 
1 1 1 1 1 1 1 1 1 
1 1 1 1 1 1 1 1 1 
1 1 1 1 1 1 1 1 1 
1 1 1 1 1 1 1 1 1 
1 1 1 1 1 1 1 1 1 
1 1 1 1 1 1 1 1 1 
1 1 1 1 1 1 1 1 1 
1 1 1 1 1 1 1 1 1 
1 1 1 1 1 1 1 1 1 
1 1 1 1 1 1 1 1 1 
1 1 1 1 1 1 1 1 1 
1 1 1 1 1 1 1 1 1 
1 1 1 1 1 1 1 1 1 
1 1 1 1 1 1 1 1 1 
1 1 1 1 1 1 1 1 1 
1 1 1 1 1 1 1 1 1 
1 1 1 1 1 1 1 1 1 
1 1 1 1 1 1 1 1 1 
1 1 1 1 1 1 1 1 1 
1 1 1 1 1 1 1 1 1 
1 1 1 1 1 1 1 1 1 
1 1 1 1 1 1 1 1 1 
1 1 1 1 1 1 1 1 1 
1 1 1 1 1 1 1 1 1 
1 1 1 1 1 1 1 1 1 
1 1 1 1 1 1 1 1 1 
1 1 1 1 1 1 1 1 1 
1 1 1 1 1 1 1 1 1 
1 1 1 1 1 1 1 1 1 
1 1 1 1 1 1 1 1 1 
1 1 1 1 1 1 1 1 1 
1 1 1 1 1 1 1 1 1 
1 1 1 1 1 1 1 1 1 
1 1 1 1 1 1 1 1 1 
1 1 1 1 1 1 1 1 1 
1 1 1 1 1 1 1 1 1 
1 1 1 1 1 1 1 1 1 
1 1 1 1 1 1 1 1 1 
1 1 1 1 1 1 1 1 1 
1 1 1 1 1 1 1 1 1 
1 1 1 1 1 1 1 1 1 
1 1 1 1 1 1 1 1 1 
1 1 1 1 1 1 1 1 1 
1 1 1 1 1 1 1 1 1 
1 1 1 1 1 1 1 1 1 
1 1 1 1 1 1 1 1 1 
1 1 1 1 1 1 1 1 1 
1 1 1 1 1 1 1 1 1 
1 1 1 1 1 1 1 1 1 
1 1 1 1 1 1 1 1 1 
1 1 1 1 1 1 1 1 1 
1 1 1 1 1 1 1 1 1 
1 1 1 1 1 1 1 1 1 
1 1 1 1 1 1 1 1 1 
1 1 1 1 1 1 1 1 1 
1 1 1 1 1 1 1 1 1 
1 1 1 1 1 1 1 1 1 
1 1 1 1 1 1 1 1 1 
1 1 1 1 1 1 1 1 1 
1 1 1 1 1 1 1 1 1 
1 1 1 1 1 1 1 1 1 
1 1 1 1 1 1 1 1 1 
1 1 1 1 1 1 1 1 1 
1 1 1 1 1 1 1 1 1 
1 1 1 1 1 1 1 1 1 
1 1 1 1 1 1 1 1 1 
1 1 1 1 1 1 1 1 1 
1 1 1 1 1 1 1 1 1 
1 1 1 1 1 1 1 1 1 
1 1 1 1 1 1 1 1 1 
1 1 1 1 1 1 1 1 1 
1 1 1 1 1 1 1 1 1 
1 1 1 1 1 1 1 1 1 
1 1 1 1 1 1 1 1 1 
1 1 1 1 1 1 1 1 1 
1 1 1 1 1 1 1 1 1 
1 1 1 1 1 1 1 1 1 
1 1 1 1 1 1 1 1 1 
1 1 1 1 1 1 1 1 1 
1 1 1 1 1 1 1 1 1 
1 1 1 1 1 1 1 1 1 
1 1 1 1 1 1 1 1 1 
1 1 1 1 1 1 1 1 1 
1 1 1 1 1 1 1 1 1 
1 1 1 1 1 1 1 1 1 
1 1 1 1 1 1 1 1 1 
1 1 1 1 1 1 1 1 1 
1 1 1 1 1 1 1 1 1 
1 1 1 1 1 1 1 1 1 
1 1 1 1 1 1 1 1 1 
1 1 1 1 1 1 1 1 1 
1 1 1 1 1 1 1 1 1 
1 1 1 1 1 1 1 1 1 
1 1 1 1 1 1 1 1 1 
1 1 1 1 1 1 1 1 1 
1 1 1 1 1 1 1 1 1 
1 1 1 1 1 1 1 1 1 
1 1 1 1 1 1 1 1 1 
1 1 1 1 1 1 1 1 1 
1 1 1 1 1 1 1 1 1 
1 1 1 1 1 1 1 1 1 
1 1 1 1 1 1 1 1 1 
1 1 1 1 1 1 1 1 1 
1 1 1 1 1 1 1 1 1 
1 1 1 1 1 1 1 1 1 
1 1 1 1 1 1 1 1 1 
1 1 1 1 1 1 1 1 1 
1 1 1 1 1 1 1 1 1 
1 1 1 1 1 1 1 1 1 
1 1 1 1 1 1 1 1 1 
1 1 1 1 1 1 1 1 1 
1 1 1 1 1 1 1 1 1 
1 1 1 1 1 1 1 1 1 
1 1 1 1 1 1 1 1 1 
1 1 1 1 1 1 1 1 1 
1 1 1 1 1 1 1 1 1 
1 1 1 1 1 1 1 1 1 
1 1 1 1 1 1 1 1 1 
1 1 1 1 1 1 1 1 1 
1 1 1 1 1 1 1 1 1 
1 1 1 1 1 1 1 1 1 
1 1 1 1 1 1 1 1 1 
1 1 1 1 1 1 1 1 1 
1 1 1 1 1 1 1 1 1 
1 1 1 1 1 1 1 1 1 
1 1 1 1 1 1 1 1 1 
1 1 1 1 1 1 1 1 1 
1 1 1 1 1 1 1 1 1 
1 1 1 1 1 1 1 1 1 
1 1 1 1 1 1 1 1 1 
1 1 1 1 1 1 1 1 1 
1 1 1 1 1 1 1 1 1 
1 1 1 1 1 1 1 1 1 
1 1 1 1 1 1 1 1 1 
1 1 1 1 1 1 1 1 1 
1 1 1 1 1 1 1 1 1 
1 1 1 1 1 1 1 1 1 
1 1 1 1 1 1 1 1 1 
1 1 1 1 1 1 1 1 1 
1 1 1 1 1 1 1 1 1 
1 1 1 1 1 1 1 1 1 
1 1 1 1 1 1 1 1 1 
1 1 1 1 1 1 1 1 1 
1 1 1 1 1 1 1 1 1 
1 1 1 1 1 1 1 1 1 
1 1 1 1 1 1 1 1 1 
1 1 1 1 1 1 1 1 1 
1 1 1 1 1 1 1 1 1 
1 1 1 1 1 1 1 1 1 
1 1 1 1 1 1 1 1 1 
1 1 1 1 1 1 1 1 1 
1 1 1 1 1 1 1 1 1 
1 1 1 1 1 1 1 1 1 
1 1 1 1 1 1 1 1 1 
1 1 1 1 1 1 1 1 1 
1 1 1 1 1 1 1 1 1 
1 1 1 1 1 1 1 1 1 
1 1 1 1 1 1 1 1 1 
1 1 1 1 1 1 1 1 1 
1 1 1 1 1 1 1 1 1 
1 1 1 1 1 1 1 1 1 
1 1 1 1 1 1 1 1 1 
1 1 1 1 1 1 1 1 1 
1 1 1 1 1 1 1 1 1 
1 1 1 1 1 1 1 1 1 
1 1 1 1 1 1 1 1 1 
1 1 1 1 1 1 1 1 1 
1 1 1 1 1 1 1 1 1 
1 1 1 1 1 1 1 1 1 
1 1 1 1 1 1 1 1 1 
1 1 1 1 1 1 1 1 1 
1 1 1 1 1 1 1 1 1 
1 1 1 1 1 1 1 1 1 
1 1 1 1 1 1 1 1 1 
1 1 1 1 1 1 1 1 1 
1 1 1 1 1 1 1 1 1 
1 1 1 1 1 1 1 1 1 
1 1 1 1 1 1 1 1 1 
1 1 1 1 1 1 1 1 1 
1 1 1 1 1 1 1 1 1 
1 1 1 1 1 1 1 1 1 
1 1 1 1 1 1 1 1 1 
1 1 1 1 1 1 1 1 1 
1 1 1 1 1 1 1 1 1 
1 1 1 1 1 1 1 1 1 
1 1 1 1 1 1 1 1 1 
1 1 1 1 1 1 1 1 1 
1 1 1 1 1 1 1 1 1 
1 1 1 1 1 1 1 1 1 
1 1 1 1 1 1 1 1 1 
1 1 1 1 1 1 1 1 1 
1 1 1 1 1 1 1 1 1 
1 1 1 1 1 1 1 1 1 
1 1 1 1 1 1 1 1 1 
1 1 1 1 1 1 1 1 1 
1 1 1 1 1 1 1 1 1 
1 1 1 1 1 1 1 1 1 
1 1 1 1 1 1 1 1 1 
1 1 1 1 1 1 1 1 1 
1 1 1 1 1 1 1 1 1 
1 1 1 1 1 1 1 1 1 
1 1 1 1 1 1 1 1 1 
1 1 1 1 1 1 1 1 1 
1 1 1 1 1 1 1 1 1 
1 1 1 1 1 1 1 1 1 
1 1 1 1 1 1 1 1 1 
1 1 1 1 1 1 1 1 1 
1 1 1 1 1 1 1 1 1 
1 1 1 1 1 1 1 1 1 
1 1 1 1 1 1 1 1 1 
1 1 1 1 1 1 1 1 1 
1 1 1 1 1 1 1 1 1 
1 1 1 1 1 1 1 1 1 
1 1 1 1 1 1 1 1 1 
1 1 1 1 1 1 1 1 1 
1 1 1 1 1 1 1 1 1 
1 1 1 1 1 1 1 1 1 
1 1 1 1 1 1 1 1 1 
1 1 1 1 1 1 1 1 1 
1 1 1 1 1 1 1 1 1 
1 1 1 1 1 1 1 1 1 
1 1 1 1 1 1 1 1 1 
1 1 1 1 1 1 1 1 1 
1 1 1 1 1 1 1 1 1 
1 1 1 1 1 1 1 1 1 
1 1 1 1 1 1 1 1 1 
1 1 1 1 1 1 1 1 1 
1 1 1 1 1 1 1 1 1 
1 1 1 1 1 1 1 1 1 
1 1 1 1 1 1 1 1 1 
1 1 1 1 1 1 1 1 1 
1 1 1 1 1 1 1 1 1 
1 1 1 1 1 1 1 1 1 
1 1 1 1 1 1 1 1 1 
1 1 1 1 1 1 1 1 1 
1 1 1 1 1 1 1 1 1 
1 1 1 1 1 1 1 1 1 
1 1 1 1 1 1 1 1 1 
1 1 1 1 1 1 1 1 1 
1 1 1 1 1 1 1 1 1 
1 1 1 1 1 1 1 1 1 
1 1 1 1 1 1 1 1 1 
1 1 1 1 1 1 1 1 1 
1 1 1 1 1 1 1 1 1 
1 1 1 1 1 1 1 1 1 
1 1 1 1 1 1 1 1 1 
1 1 1 1 1 1 1 1 1 
1 1 1 1 1 1 1 1 1 
1 1 1 1 1 1 1 1 1 
1 1 1 1 1 1 1 1 1 
1 1 1 1 1 1 1 1 1 
1 1 1 1 1 1 1 1 1 
1 1 1 1 1 1 1 1 1 
1 1 1 1 1 1 1 1 1 
1 1 1 1 1 1 1 1 1 
1 1 1 1 1 1 1 1 1 
1 1 1 1 1 1 1 1 1 
1 1 1 1 1 1 1 1 1 
1 1 1 1 1 1 1 1 1 
1 1 1 1 1 1 1 1 1 
1 1 1 1 1 1 1 1 1 
1 1 1 1 1 1 1 1 1 
1 1 1 1 1 1 1 1 1 
1 1 1 1 1 1 1 1 1 
1 1 1 1 1 1 1 1 1 
1 1 1 1 1 1 1 1 1 
1 1 1 1 1 1 1 1 1 
1 1 1 1 1 
NORMALS normals float
0 -0.0099995 -0.99995 0 -0.707107 -0.707107 -0.703527 -0.00710633 -0.710633 
0.573482 -0.579275 -0.579275 -0.009999 0.009999 -0.9999 -0.707089 0.00707089 -0.707089 
0.579275 -0.573482 -0.579275 0.0099995 0 -0.99995 0.707107 0 -0.707107 
-0.00707089 0.707089 -0.707089 0.00710633 0.703527 -0.710633 0 -0.0099995 -0.99995 
0 -0.707107 -0.707107 -0.703527 -0.00710633 -0.710633 0.999898 -0.0101 -0.0101 
0 0.0099995 -0.99995 -0.703527 0.00710633 -0.710633 0.703527 0.00710633 -0.710633 
0 0.707107 -0.707107 -0.009999 -0.009999 -0.9999 -0.00707089 -0.707089 -0.707089 
-0.707089 -0.00707089 -0.707089 0.009999 -0.009999 -0.9999 0.009999 -0.9999 -0.009999 
0.9999 -0.009999 -0.009999 -0.0099995 0 -0.99995 -0.707107 0 -0.707107 
0.0099995 0 -0.99995 0.710633 -0.703527 -0.00710633 -0.0099995 0 -0.99995 
-0.579275 -0.573482 -0.579275 0 0 -1 0.703527 -0.710633 -0.00710633 
0 -0.0099995 -0.99995 0.0099995 0 -0.99995 0.0101 -0.999898 -0.0101 
0.99995 0 -0.0099995 -0.00707089 -0.707089 -0.707089 -0.57735 -0.57735 -0.57735 
-0.57735 -0.57735 -0.57735 0 0 -1 0 0 -1 
0.009999 0.009999 -0.9999 0.707089 0.707089 -0.00707089 0.710633 0.703527 -0.00710633 
-0.707089 -0.00707089 -0.707089 -0.57735 -0.57735 -0.57735 -0.707089 -0.707089 -0.00707089 
0.575406 -0.575406 -0.581219 0.0099995 0 -0.99995 0.710633 0.703527 -0.00710633 
0.707089 0.707089 -0.00707089 -0.0099995 0 -0.99995 -0.710633 -0.703527 -0.00710633 
-0.99995 0 -0.0099995 -0.703545 0 -0.710651 0.707107 0 -0.707107 
0.99995 0 -0.0099995 -0.579275 0.573482 -0.579275 -0.579275 0.573482 -0.579275 
-0.0099995 0 -0.99995 0 0.703545 -0.710651 0 0.703545 -0.710651 
0.0099995 0 -0.99995 0.99995 0 -0.0099995 -0.0099995 0 -0.99995 
-0.707107 0 -0.707107 0 0 -1 0 0 -1 
0.0099995 0 -0.99995 0.99995 0 -0.0099995 -0.0099995 0 -0.99995 
-0.99995 0 -0.0099995 0 0 -1 0 0 -1 
0.0099995 0 -0.99995 0.99995 0 -0.0099995 -0.0099995 0 -0.99995 
-0.99995 0 -0.0099995 0 0 -1 0 0 -1 
0.0099995 0 -0.99995 0.579275 -0.573482 -0.579275 -0.0099995 0 -0.99995 
-0.99995 0 -0.0099995 0 0 -1 0 0 -1 
0 0 -1 0.573482 -0.579275 -0.579275 0 -0.0099995 -0.99995 
0 -0.0099995 -0.99995 0 -0.707107 -0.707107 0 -0.0099995 -0.99995 
0 -0.707107 -0.707107 0.00707089 -0.707089 -0.707089 0.00707089 -0.707089 -0.707089 
0.9999 -0.009999 -0.009999 -0.009999 0.009999 -0.9999 -0.9999 0.009999 -0.009999 
0 0.0099995 -0.99995 0 0 -1 0 0 -1 
0 0 -1 0 0 -1 -0.703545 0 -0.710651 
0.581219 -0.575406 -0.575406 -0.009999 0.9999 -0.009999 -0.573482 0.579275 -0.579275 
-0.579275 0.573482 -0.579275 -0.0099995 0 -0.99995 0 0 -1 
0 0 -1 0 0 -1 -0.703545 0 -0.710651 
0.573482 -0.579275 -0.579275 0.703527 -0.00710633 -0.710633 0.0099995 0 -0.99995 
0.00710633 -0.703527 -0.710633 0.99995 0 -0.0099995 -0.009999 0.009999 -0.9999 
-0.9999 0.009999 -0.009999 0 0.0099995 -0.99995 0 0 -1 
0 0 -1 0 0.0099995 -0.99995 0 0.707107 -0.707107 
0.009999 0.009999 -0.9999 0.707089 0.707089 -0.00707089 0.710633 0.703527 -0.00710633 
-0.009999 0.9999 -0.009999 -0.573482 0.579275 -0.579275 -0.579275 0.573482 -0.579275 
-0.0099995 0 -0.99995 0.009999 0.009999 -0.9999 0.707089 0.707089 -0.00707089 
0.703527 0.710633 -0.00710633 0 0.99995 -0.0099995 0.009999 0.9999 -0.009999 
0 0.0099995 -0.99995 -0.999898 0.0101 -0.0101 0.703527 0.710633 -0.00710633 
0.707089 0.707089 -0.00707089 0 0.99995 -0.0099995 0 -0.707107 -0.707107 
0 -0.707107 -0.707107 -0.573482 -0.579275 -0.579275 0.573482 -0.579275 -0.579275 
-0.707089 -0.00707089 -0.707089 -0.57735 -0.57735 -0.57735 -0.707089 -0.00707089 -0.707089 
0.579275 -0.579275 -0.573482 0.99995 -0.0099995 0 -0.707107 0 -0.707107 
-0.707107 0 -0.707107 0.710651 -0.703545 0 -0.579275 -0.573482 -0.579275 
-0.579275 -0.573482 -0.579275 0.703545 -0.710651 0 0.0101005 -0.999949 0 
1 0 0 -0.57735 -0.57735 -0.57735 -0.57735 -0.57735 -0.57735 
-0.9999 -0.009999 -0.009999 0.579275 0.579275 -0.573482 0.581219 0.575406 -0.575406 
-0.710651 -0.703545 0 0.581219 0.575406 -0.575406 0.579275 0.579275 -0.573482 
-0.707089 -0.707089 0.00707089 -0.9999 -0.009999 0.009999 0.710651 0 -0.703545 
-0.581219 0.575406 -0.575406 -1 0 0 0.710651 0 -0.703545 
-0.707089 0.00707089 -0.707089 -0.9999 0.009999 -0.009999 0.710651 0 -0.703545 
-0.707089 0.707089 -0.00707089 -0.710651 0.703545 0 0.581219 -0.575406 -0.575406 
-1 0 0 0.573482 -0.579275 -0.579275 0.573482 -0.579275 -0.579275 
0 -0.707107 -0.707107 0 -0.707107 -0.707107 0 -0.707107 -0.707107 
0 -0.707107 -0.707107 0.00707089 -0.707089 -0.707089 0.00707089 -0.707089 -0.707089 
0.707089 -0.00707089 -0.707089 -1 0 0 0.581219 -0.575406 -0.575406 
-0.99995 0.0099995 0 0.573482 -0.579275 -0.579275 0.573482 -0.579275 -0.579275 
0 -0.707107 -0.707107 0 -0.707107 -0.707107 0.0099995 0 -0.99995 
0.00710633 -0.703527 -0.710633 0.707107 0 -0.707107 -0.579275 0.579275 -0.573482 
-0.57735 0.57735 -0.57735 -0.57735 0.57735 -0.57735 0.579275 0.573482 -0.579275 
0.579275 0.579275 -0.573482 -0.57735 0.57735 -0.57735 -0.579275 0.579275 -0.573482 
0.579275 0.579275 -0.573482 0.579275 0.579275 -0.573482 -0.579275 0.579275 -0.573482 
-0.57735 0.57735 -0.57735 -0.57735 0.57735 -0.57735 0.579275 0.579275 -0.573482 
0.575406 0.581219 -0.575406 0 0.710651 -0.703545 0.0099995 0.99995 0 
-0.57735 0.57735 -0.57735 -0.575406 0.581219 -0.575406 0.575406 0.581219 -0.575406 
0.579275 0.579275 -0.573482 0 1 0 -0.009999 -0.009999 -0.9999 
-0.009999 -0.9999 -0.009999 -0.707089 -0.00707089 -0.707089 0.009999 -0.009999 -0.9999 
0.009999 -0.9999 -0.009999 0.9999 -0.009999 -0.009999 -0.0099995 0 -0.99995 
-0.707107 0 -0.707107 0.0099995 0 -0.99995 0.99995 0 -0.0099995 
-0.00710633 -0.703527 -0.710633 -0.579275 -0.573482 -0.579275 0.0099995 0 -0.99995 
0.99995 0 -0.0099995 -0.57735 -0.57735 -0.57735 -0.57735 -0.57735 -0.57735 
-0.57735 -0.57735 -0.57735 0.579275 -0.573482 -0.579275 0.99995 0 -0.0099995 
-0.707089 -0.00707089 -0.707089 -0.57735 -0.57735 -0.57735 -0.9999 -0.009999 -0.009999 
1 0 0 -0.707107 0 -0.707107 -0.707107 0 -0.707107 
0.581219 -0.575406 -0.575406 -0.579275 -0.573482 -0.579275 -0.707107 0 -0.707107 
0.575406 -0.581219 -0.575406 0.0099995 -0.99995 0 0.99995 -0.0099995 0 
-0.710651 0 -0.703545 0.579275 0.573482 -0.579275 0.99995 0 -0.0099995 