# vtk DataFile Version 3.0
vtk output
ASCII
DATASET POLYDATA
POINTS 1138 float
79 86 43.0105 79 85.0105 44 78.0105 86 44 
80 86 43.0105 80 85.0105 44 81 86 43.0105 
81 85.0105 44 82 86 43.0105 82 85.0105 44 
82.9895 86 44 78 87 43.0105 78 86.0105 44 
77.0105 87 44 79 87 43.0105 80 87 43.0105 
81 87 43.0105 81.9895 87 44 82 86.9895 44 
77 88 43.0105 77 87.0105 44 76.0105 88 44 
78 88 43.0105 79 88 43.0105 80 88 43.0105 
80.9895 88 44 81 87.9895 44 76 89 43.0105 
76 88.0105 44 75.0105 89 44 77 89 43.0105 
78 89 43.0105 79 89 43.0105 79.9895 89 44 
80 88.9895 44 76 89.9895 44 76.0105 90 44 
77 90 43.0105 78 90 43.0105 78.9895 90 44 
79 89.9895 44 77 91 43.0105 76.0105 91 44 
77.9895 91 44 78 90.9895 44 77 91.9895 44 
79 85 44.0105 79 84.0105 45 78.0105 85 45 
80 85 44.0105 80 84.0105 45 81 85 44.0105 
81 84.0105 45 81.9895 85 45 78 86 44.0105 
78 85.0105 45 77.0105 86 45 82 85.0105 45 
82.9895 86 45 77 87 44.0105 77 86.0105 45 
76.0105 87 45 81.9895 87 45 82 86.9895 45 
76 88 44.0105 76 87.0105 45 75.0105 88 45 
80.9895 88 45 81 87.9895 45 75.0105 89 45 
79.9895 89 45 80 88.9895 45 76 89.9895 45 
76.0105 90 45 78.9895 90 45 79 89.9895 45 
76 91 44.0105 76 90.0105 45 75.0105 91 45 
78 91 44.0105 78.9895 91 45 76 91.9895 45 
77 91.9895 45 78 91.9895 45 79 84 45.0105 
79 83.0105 46 78.0105 84 46 80 84 45.0105 
80 83.0105 46 81 84 45.0105 81 83.0105 46 
82 84 45.0105 82 83.0105 46 82.9895 84 46 
78 85 45.0105 78 84.0105 46 77.0105 85 46 
82 85 45.0105 82.9895 85 46 77 86 45.0105 
77 85.0105 46 76.0105 86 46 82.9895 86 46 
76 87 45.0105 76 86.0105 46 75.0105 87 46 
81.9895 87 46 82 86.9895 46 75 88 45.0105 
75 87.0105 46 74.0105 88 46 80.9895 88 46 
81 87.9895 46 75 89 45.0105 74.0105 89 46 
80 89 45.0105 80.9895 89 46 75 89.9895 46 
76 89.9895 46 76.0105 90 46 79 90 45.0105 
80 90 45.0105 80.9895 90 46 76 90.0105 46 
75.0105 91 46 79 91 45.0105 79.9895 91 46 
80 90.9895 46 75 92 45.0105 75 91.0105 46 
74.0105 92 46 76 92 45.0105 77 92 45.0105 
78 92 45.0105 78.9895 92 46 79 91.9895 46 
75 93 45.0105 74.0105 93 46 76 93 45.0105 
77 93 45.0105 77.9895 93 46 78 92.9895 46 
75 93.9895 46 76 93.9895 46 77 93.9895 46 
79 83 46.0105 79 82.0105 47 78.0105 83 47 
80 83 46.0105 80 82.0105 47 81 83 46.0105 
81 82.0105 47 82 83 46.0105 82 82.0105 47 
82.9895 83 47 78 84 46.0105 78 83.0105 47 
77.0105 84 47 82.9895 84 47 77.0105 85 47 
82.9895 85 47 77 85.0105 47 76.0105 86 47 
82.9895 86 47 76 86.0105 47 75.0105 87 47 
81.9895 87 47 82 86.9895 47 75 87.0105 47 
74.0105 88 47 80.9895 88 47 81 87.9895 47 
74.0105 89 47 80.9895 89 47 75 89.9895 47 
76 90 46.0105 75.0105 90 47 80.9895 90 47 
75 91 46.0105 75 90.0105 47 74.0105 91 47 
80 91 46.0105 80.9895 91 47 74.0105 92 47 
78.9895 92 47 79 91.9895 47 80 91.9895 47 
74.0105 93 47 78 93 46.0105 78.9895 93 47 
75 93.9895 47 76 93.9895 47 77 93.9895 47 
78 93.9895 47 81 82 47.0105 81 81.0105 48 
80.0105 82 48 82 82 47.0105 82 81.0105 48 
83 82 47.0105 83 81.0105 48 84 82 47.0105 
84 81.0105 48 84.9895 82 48 79 83 47.9895 
79.0105 83 48 80 82.0105 48 83 83 47.0105 
84 83 47.0105 84.9895 83 48 78 84 47.9895 
78.0105 84 48 79 83.0105 48 83 84 47.0105 
84 84 47.0105 84.9895 84 48 78 85 47.9895 
78.0105 85 48 83 85 47.0105 83.9895 85 48 
84 84.9895 48 77 86 47.9895 78 86 47.9895 
78.0105 86 48 82.9895 86 48 83 85.9895 48 
76 87 47.9895 77 87 47.9895 77.0105 87 48 
78 86.0105 48 82 87 47.0105 82.9895 87 48 
75 88 47.9895 76 88 47.9895 76.0105 88 48 
77 87.0105 48 81 88 47.0105 82 88 47.0105 
82.9895 88 48 75 89 47.9895 75.0105 89 48 
76 88.0105 48 81 89 47.0105 82 89 47.0105 
82.9895 89 48 75 89.0105 48 74.0105 90 48 
75 90 47.0105 81 90 47.0105 82 90 47.0105 
82.9895 90 48 74.0105 91 48 81 91 47.0105 
81.9895 91 48 82 90.9895 48 74.0105 92 48 
79 92 47.0105 80 92 47.0105 80.9895 92 48 
81 91.9895 48 74.0105 93 48 79 93 47.0105 
79.9895 93 48 80 92.9895 48 75 94 47.0105 
74.0105 94 48 76 94 47.0105 77 94 47.0105 
78 94 47.0105 78.9895 94 48 79 93.9895 48 
75 95 47.0105 74.0105 95 48 76 95 47.0105 
77 95 47.0105 77.9895 95 48 78 94.9895 48 
75 96 47.0105 74.0105 96 48 76 96 47.0105 
76.9895 96 48 77 95.9895 48 75 97 47.0105 
74.0105 97 48 75.9895 97 48 76 96.9895 48 
75 97.9895 48 82 81 48.0105 82 80.0105 49 
81.0105 81 49 83 81 48.0105 83 80.0105 49 
84 81 48.0105 84 80.0105 49 84.9895 81 49 
81 81.0105 49 80.0105 82 49 84.9895 82 49 
80 82.0105 49 79.0105 83 49 84.9895 83 49 
79 83.0105 49 78.0105 84 49 84.9895 84 49 
78.0105 85 49 84 85 48.0105 84.9895 85 49 
78.0105 86 49 82.9895 86 49 83 85.9895 49 
84 85.9895 49 78 86.0105 49 77.0105 87 49 
82.9895 87 49 77 87.0105 49 76.0105 88 49 
82.9895 88 49 76 88.0105 49 75.0105 89 49 
82.9895 89 49 75 89.0105 49 74.0105 90 49 
82.9895 90 49 74.0105 91 49 81.9895 91 49 
82 90.9895 49 74.0105 92 49 80.9895 92 49 
81 91.9895 49 74.0105 93 49 79.9895 93 49 
80 92.9895 49 74.0105 94 49 78.9895 94 49 
79 93.9895 49 74.0105 95 49 77.9895 95 49 
78 94.9895 49 74.0105 96 49 76.9895 96 49 
77 95.9895 49 74.0105 97 49 75.9895 97 49 
76 96.9895 49 75 97.9895 49 85 78 49.0105 
85 77.0105 50 84.0105 78 50 86 78 49.0105 
86 77.0105 50 86.9895 78 50 84 79 49.0105 
84 78.0105 50 83.0105 79 50 85 79 49.0105 
86 79 49.0105 86.9895 79 50 83 80 49.0105 
83 79.0105 50 82.0105 80 50 84 80 49.0105 
85 80 49.0105 86 80 49.0105 86.9895 80 50 
82 80.0105 50 81.0105 81 50 85 81 49.0105 
86 81 49.0105 86.9895 81 50 81 81.0105 50 
80.0105 82 50 85 82 49.0105 86 82 49.0105 
86.9895 82 50 80 83 49.9895 80.0105 83 50 
85 83 49.0105 85.9895 83 50 86 82.9895 50 
79 84 49.9895 80 84 49.9895 80.0105 84 50 
84.9895 84 50 85 83.9895 50 79 85 49.9895 
79.0105 85 50 80 84.0105 50 84.9895 85 50 
79 85.0105 50 78.0105 86 50 83 86 49.0105 
84 86 49.0105 84.9895 86 50 78 86.0105 50 
77.0105 87 50 83 87 49.0105 83.9895 87 50 
84 86.9895 50 77 87.0105 50 76.0105 88 50 
82.9895 88 50 83 87.9895 50 76 89 49.9895 
76.0105 89 50 82.9895 89 50 75 90 49.9895 
76 90 49.9895 76.0105 90 50 82.9895 90 50 
75 91 49.9895 76 91 49.9895 76.0105 91 50 
81.9895 91 50 82 90.9895 50 75 92 49.9895 
76 92 49.9895 76.0105 92 50 80.9895 92 50 
81 91.9895 50 75 93 49.9895 75.0105 93 50 
76 92.0105 50 79.9895 93 50 80 92.9895 50 
75 93.0105 50 74.0105 94 50 78.9895 94 50 
79 93.9895 50 74.0105 95 50 77.9895 95 50 
78 94.9895 50 74.0105 96 50 76.9895 96 50 
77 95.9895 50 74.0105 97 50 75.9895 97 50 
76 96.9895 50 75 97.9895 50 85 77.0105 51 
84.0105 78 51 86 77.0105 51 86.9895 78 51 
83 79 50.0105 83 78.0105 51 82.0105 79 51 
84 78.0105 51 86.9895 79 51 82 80 50.0105 
82 79.0105 51 81.0105 80 51 86.9895 80 51 
81.0105 81 51 86.9895 81 51 81 81.0105 51 
80.0105 82 51 86.9895 82 51 80.0105 83 51 
86 83 50.0105 86.9895 83 51 80.0105 84 51 
84.9895 84 51 85 83.9895 51 86 83.9895 51 
80 84.0105 51 79.0105 85 51 84.9895 85 51 
79 85.0105 51 78.0105 86 51 84.9895 86 51 
78 87 50.9895 78.0105 87 51 84 87 50.0105 
84.9895 87 51 77 87.0105 51 76.0105 88 51 
78 87.0105 51 82.9895 88 51 83 87.9895 51 
84 87.9895 51 76.0105 89 51 82.9895 89 51 
76.0105 90 51 82.9895 90 51 76.0105 91 51 
81.9895 91 51 82 90.9895 51 76.0105 92 51 
80.9895 92 51 81 91.9895 51 76 92.0105 51 
75.0105 93 51 79.9895 93 51 80 92.9895 51 
75 93.0105 51 74.0105 94 51 78.9895 94 51 
79 93.9895 51 74.0105 95 51 77.9895 95 51 
78 94.9895 51 74.0105 96 51 76.9895 96 51 
77 95.9895 51 75 96.9895 51 75 97 50.9895 
76 96.9895 51 85 78 51.9895 86 78 51.9895 
83 79 51.9895 84 79 51.9895 85 79 51.9895 
86 79 51.9895 82 80 51.9895 82.0105 80 52 
83 79.0105 52 84 79.0105 52 85 79.0105 52 
86 79.0105 52 86.9895 80 52 82 81 51.9895 
82.0105 81 52 86.9895 81 52 81 82 51.9895 
82 82 51.9895 82.0105 82 52 86.9895 82 52 
81 83 51.9895 81.0105 83 52 82 82.0105 52 
86.9895 83 52 81 83.0105 52 80.0105 84 52 
85 84 51.0105 86 84 51.0105 86.9895 84 52 
80 85 51.9895 80.0105 85 52 85 85 51.0105 
86 85 51.0105 86.9895 85 52 79 86 51.9895 
80 86 51.9895 80.0105 86 52 85 86 51.0105 
86 86 51.0105 86.9895 86 52 79 87 51.9895 
79.0105 87 52 80 86.0105 52 85 87 51.0105 
85.9895 87 52 86 86.9895 52 77 88 51.9895 
78 88 51.9895 78.0105 88 52 79 87.0105 52 
83 88 51.0105 84 88 51.0105 84.9895 88 52 
85 87.9895 52 77 89 51.9895 77.0105 89 52 
78 88.0105 52 83 89 51.0105 83.9895 89 52 
84 88.9895 52 77 89.0105 52 76.0105 90 52 
82.9895 90 52 83 89.9895 52 76.0105 91 52 
81.9895 91 52 82 90.9895 52 76.0105 92 52 
80.9895 92 52 81 91.9895 52 76 93 51.9895 
76.0105 93 52 79.9895 93 52 80 92.9895 52 
75 94 51.9895 76 94 51.9895 76.0105 94 52 
78.9895 94 52 79 93.9895 52 75 95 51.9895 
76 95 51.9895 76.0105 95 52 78 95 51.0105 
78.9895 95 52 75 96 51.9895 76 96 51.9895 
76.0105 96 52 77 96 51.0105 78 96 51.0105 
78.9895 96 52 76.0105 97 52 77 97 51.0105 
77.9895 97 52 78 96.9895 52 77 97.9895 52 
83 79.0105 53 82.0105 80 53 84 79.0105 53 
85 79.0105 53 86 79.0105 53 86.9895 80 53 
82.0105 81 53 86.9895 81 53 82.0105 82 53 
86.9895 82 53 82 82.0105 53 81.0105 83 53 
86.9895 83 53 81 83.0105 53 80.0105 84 53 
86.9895 84 53 80.0105 85 53 86.9895 85 53 
80.0105 86 53 86.9895 86 53 80 86.0105 53 
79.0105 87 53 86 87 52.0105 86.9895 87 53 
79 87.0105 53 78.0105 88 53 84.9895 88 53 
85 87.9895 53 86 87.9895 53 78 88.0105 53 
77.0105 89 53 84 89 52.0105 84.9895 89 53 
77 89.0105 53 76.0105 90 53 82.9895 90 53 
83 89.9895 53 84 89.9895 53 76.0105 91 53 
82 91 52.0105 82.9895 91 53 76.0105 92 53 
80.9895 92 53 81 91.9895 53 82 91.9895 53 
76.0105 93 53 80 93 52.0105 80.9895 93 53 
76.0105 94 53 78.9895 94 53 79 93.9895 53 
80 93.9895 53 76 95 52.0105 76 94.0105 53 
75.0105 95 53 78.9895 95 53 76 96 52.0105 
75.0105 96 53 78.9895 96 53 76 96.9895 53 
76.0105 97 53 77.9895 97 53 78 96.9895 53 
77 97.9895 53 83 80 53.9895 84 80 53.9895 
84.0105 80 54 85 79.0105 54 86 79.0105 54 
86.9895 80 54 83 81 53.9895 83.0105 81 54 
84 80.0105 54 86.9895 81 54 83 81.0105 54 
82.0105 82 54 86.9895 82 54 82 83 53.9895 
82.0105 83 54 86.9895 83 54 81 84 53.9895 
82 84 53.9895 82.0105 84 54 86.9895 84 54 
81 85 53.9895 81.0105 85 54 82 84.0105 54 
86.9895 85 54 81 85.0105 54 80.0105 86 54 
[...]
POINT_DATA 1138
SCALARS scalars float
LOOKUP_TABLE default
1 1 1 1 1 1 1 1 1 
1 1 1 1 1 1 1 1 1 
1 1 1 1 1 1 1 1 1 
1 1 1 1 1 1 1 1 1 
1 1 1 1 1 1 1 1 1 
1 1 1 1 1 1 1 1 1 
1 1 1 1 1 1 1 1 1 
1 1 1 1 1 1 1 1 1 
1 1 1 1 1 1 1 1 1 
1 1 1 1 1 1 1 1 1 
1 1 1 1 1 1 1 1 1 
1 1 1 1 1 1 1 1 1 
1 1 1 1 1 1 1 1 1 
1 1 1 1 1 1 1 1 1 
1 1 1 1 1 1 1 1 1 
1 1 1 1 1 1 1 1 1 
1 1 1 1 1 1 1 1 1 
1 1 1 1 1 1 1 1 1 
1 1 1 1 1 1 1 1 1 
1 1 1 1 1 1 1 1 1 
1 1 1 1 1 1 1 1 1 
1 1 1 1 1 1 1 1 1 
1 1 1 1 1 1 1 1 1 
1 1 1 1 1 1 1 1 1 
1 1 1 1 1 1 1 1 1 
1 1 1 1 1 1 1 1 1 
1 1 1 1 1 1 1 1 1 
1 1 1 1 1 1 1 1 1 
1 1 1 1 1 1 1 1 1 
1 1 1 1 1 1 1 1 1 
1 1 1 1 1 1 1 1 1 
1 1 1 1 1 1 1 1 1 
1 1 1 1 1 1 1 1 1 
1 1 1 1 1 1 1 1 1 
1 1 1 1 1 1 1 1 1 
1 1 1 1 1 1 1 1 1 
1 1 1 1 1 1 1 1 1 
1 1 1 1 1 1 1 1 1 
1 1 1 1 1 1 1 1 1 
1 1 1 1 1 1 1 1 1 
1 1 1 1 1 1 1 1 1 
1 1 1 1 1 1 1 1 1 
1 1 1 1 1 1 1 1 1 
1 1 1 1 1 1 1 1 1 
1 1 1 1 1 1 1 1 1 
1 1 1 1 1 1 1 1 1 
1 1 1 1 1 1 1 1 1 
1 1 1 1 1 1 1 1 1 
1 1 1 1 1 1 1 1 1 
1 1 1 1 1 1 1 1 1 
1 1 1 1 1 1 1 1 1 
1 1 1 1 1 1 1 1 1 
1 1 1 1 1 1 1 1 1 
1 1 1 1 1 1 1 1 1 
1 1 1 1 1 1 1 1 1 
1 1 1 1 1 1 1 1 1 
1 1 1 1 1 1 1 1 1 
1 1 1 1 1 1 1 1 1 
1 1 1 1 1 1 1 1 1 
1 1 1 1 1 1 1 1 1 
1 1 1 1 1 1 1 1 1 
1 1 1 1 1 1 1 1 1 
1 1 1 1 1 1 1 1 1 
1 1 1 1 1 1 1 1 1 
1 1 1 1 1 1 1 1 1 
1 1 1 1 1 1 1 1 1 
1 1 1 1 1 1 1 1 1 
1 1 1 1 1 1 1 1 1 
1 1 1 1 1 1 1 1 1 
1 1 1 1 1 1 1 1 1 
1 1 1 1 1 1 1 1 1 
1 1 1 1 1 1 1 1 1 
1 1 1 1 1 1 1 1 1 
1 1 1 1 1 1 1 1 1 
1 1 1 1 1 1 1 1 1 
1 1 1 1 1 1 1 1 1 
1 1 1 1 1 1 1 1 1 
1 1 1 1 1 1 1 1 1 
1 1 1 1 1 1 1 1 1 
1 1 1 1 1 1 1 1 1 
1 1 1 1 1 1 1 1 1 
1 1 1 1 1 1 1 1 1 
1 1 1 1 1 1 1 1 1 
1 1 1 1 1 1 1 1 1 
1 1 1 1 1 1 1 1 1 
1 1 1 1 1 1 1 1 1 
1 1 1 1 1 1 1 1 1 
1 1 1 1 1 1 1 1 1 
1 1 1 1 1 1 1 1 1 
1 1 1 1 1 1 1 1 1 
1 1 1 1 1 1 1 1 1 
1 1 1 1 1 1 1 1 1 
1 1 1 1 1 1 1 1 1 
1 1 1 1 1 1 1 1 1 
1 1 1 1 1 1 1 1 1 
1 1 1 1 1 1 1 1 1 
1 1 1 1 1 1 1 1 1 
1 1 1 1 1 1 1 1 1 
1 1 1 1 1 1 1 1 1 
1 1 1 1 1 1 1 1 1 
1 1 1 1 1 1 1 1 1 
1 1 1 1 1 1 1 1 1 
1 1 1 1 1 1 1 1 1 
1 1 1 1 1 1 1 1 1 
1 1 1 1 1 1 1 1 1 
1 1 1 1 1 1 1 1 1 
1 1 1 1 1 1 1 1 1 
1 1 1 1 1 1 1 1 1 
1 1 1 1 1 1 1 1 1 
1 1 1 1 1 1 1 1 1 
1 1 1 1 1 1 1 1 1 
1 1 1 1 1 1 1 1 1 
1 1 1 1 1 1 1 1 1 
1 1 1 1 1 1 1 1 1 
1 1 1 1 1 1 1 1 1 
1 1 1 1 1 1 1 1 1 
1 1 1 1 1 1 1 1 1 
1 1 1 1 1 1 1 1 1 
1 1 1 1 1 1 1 1 1 
1 1 1 1 1 1 1 1 1 
1 1 1 1 1 1 1 1 1 
1 1 1 1 1 1 1 1 1 
1 1 1 1 1 1 1 1 1 
1 1 1 1 1 1 1 1 1 
1 1 1 1 1 1 1 1 1 
1 1 1 1 1 1 1 1 1 
1 1 1 1 
NORMALS normals float
-0.0105251 -0.0105251 -0.999889 -0.00744302 -0.707087 -0.707087 -0.57735 -0.57735 -0.57735 
0 -0.0105257 -0.999945 0 -0.707107 -0.707107 0 -0.0105257 -0.999945 
0 -0.707107 -0.707107 0.0105257 0 -0.999945 0.0106371 -0.999887 -0.0106371 
0.999945 0 -0.0105257 -0.0105251 -0.0105251 -0.999889 -0.57735 -0.57735 -0.57735 
-0.57735 -0.57735 -0.57735 0 0 -1 0 0 -1 
0.0105251 0.0105251 -0.999889 0.707087 0.707087 -0.00744302 0.710818 0.703336 -0.0074823 
-0.0105251 -0.0105251 -0.999889 -0.57735 -0.57735 -0.57735 -0.57735 -0.57735 -0.57735 
0 0 -1 0 0 -1 0.0105251 0.0105251 -0.999889 
0.707087 0.707087 -0.00744302 0.707087 0.707087 -0.00744302 -0.0105257 0 -0.999945 
-0.579376 -0.573277 -0.579376 -0.999945 0 -0.0105257 0 0 -1 
0 0 -1 0.0105251 0.0105251 -0.999889 0.707087 0.707087 -0.00744302 
0.707087 0.707087 -0.00744302 -0.710818 0.703336 -0.0074823 -0.710818 0.703336 -0.0074823 
-0.0105257 0 -0.999945 0.0105251 0.0105251 -0.999889 0.707087 0.707087 -0.00744302 
0.707087 0.707087 -0.00744302 0 0.0105257 -0.999945 -0.703336 0.0074823 -0.710818 
0.573277 0.579376 -0.579376 0.57735 0.57735 -0.57735 0 0.999945 -0.0105257 
-0.00744302 -0.707087 -0.707087 -0.00744302 -0.707087 -0.707087 -0.57735 -0.57735 -0.57735 
0 -0.707107 -0.707107 0 -0.707107 -0.707107 0.00744302 -0.707087 -0.707087 
0.00744302 -0.707087 -0.707087 0.57735 -0.57735 -0.57735 -0.57735 -0.57735 -0.57735 
-0.57735 -0.57735 -0.57735 -0.57735 -0.57735 -0.57735 0.581423 -0.575303 -0.575303 
1 0 0 -0.57735 -0.57735 -0.57735 -0.57735 -0.57735 -0.57735 
-0.57735 -0.57735 -0.57735 0.707107 0.707107 0 0.710838 0.703356 0 
-0.57735 -0.57735 -0.57735 -0.57735 -0.57735 -0.57735 -0.707087 -0.00744302 -0.707087 
0.707107 0.707107 0 0.707107 0.707107 0 -0.710818 0.0074823 -0.703336 
0.579376 0.579376 -0.573277 0.579376 0.579376 -0.573277 -0.999945 0.0105257 0 
-1 0 0 0.581423 0.575303 -0.575303 0.579376 0.579376 -0.573277 
-0.707107 0 -0.707107 -0.999945 0 -0.0105257 -0.999945 0 -0.0105257 
0.57735 0.57735 -0.57735 0.707087 0.00744302 -0.707087 -0.0074823 0.703336 -0.710818 
0 0.710838 -0.703356 0.00744302 0.707087 -0.707087 -0.00744302 -0.707087 -0.707087 
-0.00744302 -0.707087 -0.707087 -0.57735 -0.57735 -0.57735 0 -0.707107 -0.707107 
0 -0.707107 -0.707107 0 -0.707107 -0.707107 0 -0.707107 -0.707107 
0.0105251 -0.0105251 -0.999889 0.00744302 -0.707087 -0.707087 0.999889 -0.0105251 -0.0105251 
-0.57735 -0.57735 -0.57735 -0.57735 -0.57735 -0.57735 -0.707087 -0.707087 -0.00744302 
0.579376 -0.573277 -0.579376 0.999945 0 -0.0105257 -0.57735 -0.57735 -0.57735 
-0.707087 -0.707087 -0.00744302 -0.707087 -0.707087 -0.00744302 0.999945 0.0105257 0 
-0.57735 -0.57735 -0.57735 -0.707087 -0.707087 -0.00744302 -0.707087 -0.707087 -0.00744302 
0.707107 0.707107 0 0.707107 0.707107 0 -0.707087 -0.00744302 -0.707087 
-0.707087 -0.707087 -0.00744302 -0.999889 -0.0105251 -0.0105251 0.710838 0.703356 0 
0.707107 0.707107 0 -0.707087 0.00744302 -0.707087 -0.999889 0.0105251 -0.0105251 
0.579376 0.573277 -0.579376 0.999945 0 -0.0105257 -0.0105251 0.999889 -0.0105251 
-0.707087 0.0075222 -0.707087 -0.710838 0 -0.703356 0.575303 0.575303 -0.581423 
0.0105251 0.0105251 -0.999889 0.999889 0.0105251 -0.0105251 -0.710818 -0.0074823 -0.703336 
-0.579376 -0.579376 -0.573277 0.707087 0.00744302 -0.707087 0.57735 0.57735 -0.57735 
0.57735 0.57735 -0.57735 -0.0105251 -0.0105251 -0.999889 -0.57735 -0.57735 -0.57735 
-0.999889 -0.0105251 -0.0105251 0 0.703356 -0.710838 0 0.703356 -0.710838 
0.00744302 0.707087 -0.707087 0.707087 0.707087 -0.00744302 0.707087 0.707087 -0.00744302 
-0.0105251 0.0105251 -0.999889 -0.999889 0.0105251 -0.0105251 0 0.0105257 -0.999945 
0.0105251 0.0105251 -0.999889 0.57735 0.57735 -0.57735 0.57735 0.57735 -0.57735 
-0.0105251 0.999889 -0.0105251 0 0.999945 -0.0105257 0.0105251 0.999889 -0.0105251 
-0.0074823 -0.710818 -0.703336 -0.0105257 -0.999945 0 -0.707107 -0.707107 0 
0 -0.707107 -0.707107 0 -0.999945 -0.0105257 0 -0.707107 -0.707107 
0 -0.707107 -0.707107 0.00744302 -0.707087 -0.707087 0.00744302 -0.707087 -0.707087 
0.707087 -0.00744302 -0.707087 -0.579376 -0.579376 -0.573277 -0.707107 -0.707107 0 
-0.999945 -0.0105257 0 0.710838 0 -0.703356 -0.710818 -0.703336 0.0074823 
0.710838 0 -0.703356 -0.707087 -0.707087 0.00744302 -0.707087 -0.707087 0.00744302 
0.999945 0.0105257 0 -0.707087 -0.707087 0.00744302 -0.707087 -0.707087 0.00744302 
0.579376 0.579376 -0.573277 0.579376 0.579376 -0.573277 -0.707087 -0.707087 0.00744302 
-0.999889 -0.0105251 0.0105251 0.581423 0.575303 -0.575303 0.579376 0.579376 -0.573277 
-0.999889 0.0105251 0.0105251 0.710838 0 -0.703356 -0.714569 0.00752177 -0.699525 
-0.707107 0 -0.707107 -0.707107 0 -0.707107 0.710838 0 -0.703356 
-0.57735 -0.57735 -0.57735 -0.707087 -0.00744302 -0.707087 -0.999889 -0.0105251 -0.0105251 
0.57735 0.57735 -0.57735 0.707087 0.00744302 -0.707087 -1 0 0 
0.581423 0.575303 -0.575303 0.575303 0.581423 -0.575303 0.00744302 0.707087 -0.707087 
-0.999945 0.0105257 0 0.57735 0.57735 -0.57735 0.707087 0.00744302 -0.707087 
-0.0074823 0.710818 -0.703336 0 0.710838 -0.703356 0 0.710838 -0.703356 
0.00744302 0.707087 -0.707087 -0.00744302 -0.707087 -0.707087 -0.0105251 -0.999889 -0.0105251 
-0.707087 -0.707087 -0.00744302 0 -0.707107 -0.707107 0 -0.707107 -0.707107 
0 -0.0105257 -0.999945 0 -0.707107 -0.707107 0.0105251 -0.0105251 -0.999889 
0.00744302 -0.707087 -0.707087 0.999889 -0.0105251 -0.0105251 -0.579376 -0.579376 0.573277 
-0.579376 -0.579376 0.573277 -0.707107 -0.707107 0 0.703356 0 -0.710838 
0.0105257 0 -0.999945 0.999945 0 -0.0105257 -0.710818 -0.0074823 0.703336 
-0.710818 -0.0074823 0.703336 -0.579376 -0.579376 0.573277 0.703356 0 -0.710838 
0.0105251 0.0105251 -0.999889 0.999889 0.0105251 -0.0105251 -0.707107 0 0.707107 
-0.710838 0 0.703356 0.707087 0.00744302 -0.707087 0.57735 0.57735 -0.57735 
0.57735 0.57735 -0.57735 -0.0105251 -0.0105251 0.999889 -0.575303 -0.575303 0.581423 
-0.581423 -0.575303 0.575303 0.710838 0.703356 0 0.707087 0.707087 -0.00744302 
-0.0105251 -0.0105251 0.999889 -0.575303 -0.575303 0.581423 -0.579376 -0.579376 0.573277 
-0.579376 -0.579376 0.573277 0.579376 0.573277 -0.579376 0.999945 0 -0.0105257 
-0.0105251 -0.0105251 0.999889 -0.575303 -0.575303 0.581423 -0.579376 -0.579376 0.573277 
-0.579376 -0.579376 0.573277 0.575303 0.575303 -0.581423 0.0105257 0 -0.999945 
0.999945 0 -0.0105257 -0.581401 -0.569161 0.581401 -0.579376 -0.579376 0.573277 
-0.579376 -0.579376 0.573277 0.703356 0 -0.710838 0.0105257 0 -0.999945 
0.999945 0 -0.0105257 -0.581401 -0.581401 0.569161 -0.999889 -0.0105251 -0.0105251 
-0.707087 -0.00744302 -0.707087 0.703356 0 -0.710838 0.0105251 0.0105251 -0.999889 
0.999889 0.0105251 -0.0105251 -1 0 0 0.707087 0.00744302 -0.707087 
0.707087 0.707087 -0.00744302 0.707087 0.707087 -0.00744302 -1 0 0 
0.575303 0.575303 -0.581423 0.00744302 0.707087 -0.707087 0.707087 0.707087 -0.00744302 
0.707087 0.707087 -0.00744302 -1 0 0 0.707087 0.00744302 -0.707087 
0.707087 0.707087 -0.00744302 0.707087 0.707087 -0.00744302 -0.0074823 0.703336 -0.710818 
-0.999945 0 -0.0105257 0 0.703356 -0.710838 0 0.703356 -0.710838 
0.00744302 0.707087 -0.707087 0.707087 0.707087 -0.00744302 0.707087 0.707087 -0.00744302 
-0.0105257 0 -0.999945 -0.999945 0 -0.0105257 0 0 -1 
0.0105251 0.0105251 -0.999889 0.707087 0.707087 -0.00744302 0.707087 0.707087 -0.00744302 
-0.0105257 0 -0.999945 -0.999945 0 -0.0105257 0.0105251 0.0105251 -0.999889 
0.707087 0.707087 -0.00744302 0.707087 0.707087 -0.00744302 0 0.0105257 -0.999945 
-0.999887 0.0106371 -0.0106371 0.703336 0.710818 -0.0074823 0.707087 0.707087 -0.00744302 
0 0.999945 -0.0105257 -0.00744302 -0.707087 -0.707087 -0.0105251 -0.999889 -0.0105251 
-0.707087 -0.707087 -0.00744302 0 -0.707107 -0.707107 0 -0.707107 -0.707107 
0.00744302 -0.707087 -0.707087 0.00744302 -0.707087 -0.707087 0.707087 -0.00744302 -0.707087 
-0.707107 -0.707107 0 -0.707107 -0.707107 0 0.710838 0 -0.703356 
-0.707087 -0.707087 0.00744302 -0.707087 -0.707087 0.00744302 0.710838 0 -0.703356 
-0.707087 -0.707087 0.00744302 -0.999889 -0.0105251 0.0105251 1 0 0 
-0.999945 0 0.0105257 0.57735 0.57735 -0.57735 0.999889 0.0105251 -0.0105251 
-0.710838 -0.703356 0 0.581423 0.575303 -0.575303 0.575303 0.581423 -0.575303 
0.00744302 0.707087 -0.707087 -0.707107 -0.707107 0 -0.707107 -0.707107 0 
0.710838 0 -0.703356 -0.707107 -0.707107 0 -0.707107 -0.707107 0 
1 0 0 -0.707087 -0.707087 0.00744302 -0.707087 -0.707087 0.00744302 
1 0 0 -0.707087 -0.707087 0.00744302 -0.999889 -0.0105251 0.0105251 
0.999945 0.0105257 0 -0.999945 0 0.0105257 0.707107 0.707107 0 
0.707107 0.707107 0 -0.999945 0 0.0105257 0.707107 0.707107 0 
0.707107 0.707107 0 -0.999945 0 0.0105257 0.707107 0.707107 0 
0.707107 0.707107 0 -1 0 0 0.707107 0.707107 0 
0.707107 0.707107 0 -1 0 0 0.707107 0.707107 0 
0.707107 0.707107 0 -1 0 0 0.707107 0.707107 0 
0.707107 0.707107 0 -0.999943 0.0106377 0 0.703356 0.710838 0 
0.707107 0.707107 0 0 1 0 -0.0105251 -0.0105251 -0.999889 
-0.0105251 -0.999889 -0.0105251 -0.707087 -0.707087 -0.00744302 0.0105251 -0.0105251 -0.999889 
0.0105251 -0.999889 -0.0105251 0.999889 -0.0105251 -0.0105251 -0.0105251 -0.0105251 -0.999889 
-0.707087 -0.707087 -0.00744302 -0.57735 -0.57735 -0.57735 0 0 -1 
0.0105257 0 -0.999945 0.999945 0 -0.0105257 -0.00744302 -0.707087 -0.707087 
-0.57735 -0.57735 -0.57735 -0.57735 -0.57735 -0.57735 0 -0.703356 -0.710838 
0 0 -1 0.0105257 0 -0.999945 0.999945 0 -0.0105257 
-0.579376 -0.579376 -0.573277 -0.707107 -0.707107 0 0.703356 0 -0.710838 
0.0105257 0 -0.999945 0.999945 0 -0.0105257 -0.707107 -0.707107 0 
-0.999945 -0.0105257 0 0.703356 0 -0.710838 0.0105251 0.0105251 -0.999889 
0.999889 0.0105251 -0.0105251 -0.707087 -0.00744302 0.707087 -0.710838 0 0.703356 
0.707087 0.00744302 -0.707087 0.57735 0.57735 -0.57735 0.57735 0.57735 -0.57735 
-0.0105251 -0.0105251 0.999889 -0.575303 -0.575303 0.581423 -0.581423 -0.575303 0.575303 
0.710838 0.703356 0 0.707087 0.707087 -0.00744302 -0.579376 -0.573277 0.579376 
-0.579376 -0.579376 0.573277 -0.579376 -0.579376 0.573277 1 0 0 
-0.579376 -0.579376 0.573277 -0.707107 -0.707107 0 0.575303 0.575303 -0.581423 
0.00744302 0.707087 -0.707087 0.999889 0.0105251 -0.0105251 -0.707087 -0.707087 0.00744302 
-0.707087 -0.707087 0.00744302 0.707087 0.00744302 -0.707087 0.57735 0.57735 -0.57735 
0.57735 0.57735 -0.57735 -0.707107 -0.707107 0 -0.999945 -0.0105257 0 
0.710838 0.703356 0 0.707087 0.707087 -0.00744302 -0.707087 -0.00744302 0.707087 
-0.710838 0 0.703356 1 0 0 -0.0105251 -0.0105251 0.999889 
-0.703356 0 0.710838 -0.710838 0 0.703356 0.999945 0.0105257 0 
-0.0105257 0 0.999945 -0.703356 0 0.710838 -0.710838 0 0.703356 
0.707107 0.707107 0 0.707107 0.707107 0 -0.0105257 0 0.999945 
-0.575303 -0.575303 0.581423 -0.581423 -0.575303 0.575303 0.707107 0.707107 0 
0.707107 0.707107 0 -0.579376 -0.573277 0.579376 -0.579376 -0.579376 0.573277 
-0.579376 -0.579376 0.573277 0.707107 0.707107 0 0.707107 0.707107 0 
-0.579376 -0.579376 0.573277 -0.999945 -0.0105257 0 0.707107 0.707107 0 
0.707107 0.707107 0 -1 0 0 0.707107 0.707107 0 
0.707107 0.707107 0 -1 0 0 0.707107 0.707107 0 
0.707107 0.707107 0 -0.999887 0.0106371 0.0106371 0.703336 0.710818 0.0074823 
0.707107 0.707107 0 0 0.999945 0.0105257 -0.0105251 -0.999889 0.0105251 
-0.707087 -0.707087 0.00744302 0.0105251 -0.999889 0.0105251 0.999889 -0.0105251 0.0105251 
-0.579376 -0.579376 -0.573277 -0.0105257 -0.999945 0 -0.707107 -0.707107 0 
-0.703336 -0.710818 0.0074823 0.999945 0 0.0105257 -0.579376 -0.579376 -0.573277 
-0.707107 -0.707107 0 -0.999945 -0.0105257 0 1 0 0 
-0.710818 -0.703336 0.0074823 1 0 0 -0.707087 -0.707087 0.00744302 
-0.999889 -0.0105251 0.0105251 1 0 0 -0.999945 0 0.0105257 
0.57735 0.57735 -0.57735 0.999889 0.0105251 -0.0105251 -0.710838 -0.703356 0 
0.581423 0.575303 -0.575303 0.575303 0.581423 -0.575303 0.00744302 0.707087 -0.707087 
-0.707087 -0.707087 0.00744302 -0.707087 -0.707087 0.00744302 0.710838 0 -0.703356 
-0.707087 -0.707087 0.00744302 -0.999889 -0.0105251 0.0105251 0.710838 0 -0.703356 
-0.57735 -0.57735 0.57735 -0.579376 -0.573277 0.579376 0.57735 0.57735 -0.57735 
0.707087 0.00744302 -0.707087 -0.0105251 -0.999889 0.0105251 -0.999889 -0.0105251 0.0105251 
-0.573277 -0.579376 0.579376 0.581423 0.575303 -0.575303 0.575303 0.581423 -0.575303 
0.00744302 0.707087 -0.707087 -0.999945 0 0.0105257 0.710838 0 -0.703356 
-1 0 0 0.999945 0.0105257 0 -1 0 0 
0.707107 0.707107 0 0.707107 0.707107 0 -0.710838 -0.703356 0 
0.707107 0.707107 0 0.707107 0.707107 0 -0.707087 -0.707087 0.00744302 
-0.707087 -0.707087 0.00744302 0.707107 0.707107 0 0.707107 0.707107 0 
-0.707087 -0.707087 0.00744302 -0.999889 -0.0105251 0.0105251 0.707107 0.707107 0 
0.707107 0.707107 0 -0.999945 0 0.0105257 0.579376 0.579376 -0.573277 
0.579376 0.579376 -0.573277 -0.999889 0.0105251 0.0105251 0.581401 0.581401 -0.569161 
0.579376 0.579376 -0.573277 -0.00744302 0.707087 0.707087 0 0.707107 0.707107 
0.0105251 0.999889 0.0105251 -0.0105251 -0.0105251 0.999889 0.0105251 -0.0105251 0.999889 
-0.0074823 -0.710818 0.703336 0 -0.707107 0.707107 0 -0.703356 0.710838 
0.0074823 -0.703336 0.710818 -0.710818 -0.0074823 0.703336 -0.710818 -0.0074823 0.703336 
-0.0074823 -0.710818 0.703336 0 -0.710838 0.703356 0 -0.710838 0.703356 
0.0074823 -0.710818 0.703336 0.999945 -0.0105257 0 -0.707107 0 0.707107 
-0.710838 0 0.703356 1 0 0 -0.0105251 -0.0105251 0.999889 
-0.575303 -0.575303 0.581423 -0.581423 -0.575303 0.575303 1 0 0 
-0.579376 -0.573277 0.579376 -0.579376 -0.579376 0.573277 -0.579376 -0.579376 0.573277 
1 0 0 -0.579376 -0.579376 0.573277 -0.999945 -0.0105257 0 
0.575303 0.575303 -0.581423 0.0074823 0.703336 -0.710818 0.999945 0 -0.0105257 
-0.707087 -0.00744302 0.707087 -0.710838 0 0.703356 0.703356 0 -0.710838 
0.0105257 0 -0.999945 0.999945 0 -0.0105257 -0.0105251 -0.0105251 0.999889 
-0.575303 -0.575303 0.581423 -0.581423 -0.575303 0.575303 0.703356 0 -0.710838 
0.0105251 0.0105251 -0.999889 0.999889 0.0105251 -0.0105251 -0.579376 -0.573277 0.579376 
-0.579376 -0.579376 0.573277 -0.579376 -0.579376 0.573277 0.707087 0.00744302 -0.707087 
0.57735 0.57735 -0.57735 0.57735 0.57735 -0.57735 -0.0105251 -0.0105251 0.999889 
-0.573277 -0.579376 0.579376 -0.579376 -0.579376 0.573277 -0.579376 -0.579376 0.573277 
0.575303 0.575303 -0.581423 0.00744302 0.707087 -0.707087 0.707087 0.707087 -0.00744302 
0.707087 0.707087 -0.00744302 -0.579376 -0.573277 0.579376 -0.579376 -0.579376 0.573277 
-0.579376 -0.579376 0.573277 0.707087 0.00744302 -0.707087 0.57735 0.57735 -0.57735 
0.57735 0.57735 -0.57735 -0.579376 -0.579376 0.573277 -0.999945 -0.0105257 0 
0.707107 0.707107 0 0.707087 0.707087 -0.00744302 -1 0 0 
0.579376 0.579376 -0.573277 0.579376 0.579376 -0.573277 -1 0 0 
0.707107 0.707107 0 0.707107 0.707107 0 -0.707087 -0.00744302 0.707087 
-0.710838 0 0.703356 0.579376 0.579376 -0.573277 0.579376 0.579376 -0.573277 
-0.0105251 -0.0105251 0.999889 -0.703356 0 0.710838 -0.710838 0 0.703356 
0.710838 0.703356 0 0.707107 0.707107 0 -0.0105257 0 0.999945 
-0.999943 0 0.0106377 -1 0 0 0.579376 0.573277 -0.579376 
0.999945 0 -0.0105257 -0.0105251 0.0105251 0.999889 -0.999884 0.0107514 0.0107514 
-0.999945 0 -0.0105257 0.571187 0.577329 -0.58347 0.0105251 0.0105251 -0.999889 
0.999889 0.0105251 -0.0105251 -0.999887 0.0106371 -0.0106371 0 0.0105257 -0.999945 
0.703336 0.710818 -0.0074823 0.707087 0.707087 -0.00744302 0 0.999945 -0.0105257 
-0.0105251 -0.999889 0.0105251 -0.999889 -0.0105251 0.0105251 0 -0.999945 0.0105257 
0 -1 0 0.0105257 -0.999945 0 0.999945 -0.0105257 0 
-0.999945 0 0.0105257 1 0 0 -0.710838 -0.703356 0 
1 0 0 -0.707087 -0.707087 0.00744302 -0.707087 -0.707087 0.00744302 
1 0 0 -0.707087 -0.707087 0.00744302 -0.999889 -0.0105251 0.0105251 
1 0 0 -0.999945 0 0.0105257 1 0 0 
-0.710838 -0.703356 0 1 0 0 -0.707107 -0.707107 0 
-0.707107 -0.707107 0 0.57735 0.57735 -0.57735 0.999889 0.0105251 -0.0105251 
-0.707107 -0.707107 0 -0.707107 -0.707107 0 0.581423 0.575303 -0.575303 
0.575303 0.581423 -0.575303 0.00744302 0.707087 -0.707087 -0.707087 -0.707087 0.00744302 
-0.707087 -0.707087 0.00744302 0.57735 0.57735 -0.57735 0.707087 0.00744302 -0.707087 
-0.707087 -0.707087 0.00744302 -0.999889 -0.0105251 0.0105251 0.581423 0.575303 -0.575303 
0.575303 0.581423 -0.575303 0.00744302 0.707087 -0.707087 -0.999945 0 0.0105257 
0.57735 0.57735 -0.57735 0.707087 0.00744302 -0.707087 -0.999945 0 0.0105257 
0.581423 0.575303 -0.575303 0.575303 0.581423 -0.575303 0.00744302 0.707087 -0.707087 
-0.999945 0 0.0105257 0.57735 0.57735 -0.57735 0.707087 0.00744302 -0.707087 
-0.710838 -0.703356 0 0.581423 0.575303 -0.575303 0.575303 0.581423 -0.575303 
0.00744302 0.707087 -0.707087 -0.999889 -0.0105251 -0.0105251 -0.707087 -0.707087 -0.00744302 
-0.999889 -0.0105251 -0.0105251 0.710838 0 -0.703356 -0.999945 0.0105257 0 
-0.999945 0.0105257 0 0.999945 0.0105257 0 -0.707107 0.707107 0 
-0.703356 0.710838 0 0.703356 0.710838 0 0.707107 0.707107 0 
0 1 0 -0.0105251 -0.0105251 0.999889 -0.573277 -0.579376 0.579376 
-0.579376 -0.579376 0.573277 -0.0105257 -0.999945 0 0.0105251 -0.999889 0.0105251 
0.999889 -0.0105251 0.0105251 -0.579376 -0.573277 0.579376 -0.57735 -0.57735 0.57735 
-0.57735 -0.57735 0.57735 0.999945 0 0.0105257 -0.579376 -0.579376 0.573277 
-0.999945 -0.0105257 0 1 0 0 -0.707087 -0.00744302 0.707087 
-0.710838 0 0.703356 1 0 0 -0.0105251 -0.0105251 0.999889 
-0.575303 -0.575303 0.581423 -0.581423 -0.575303 0.575303 1 0 0 
-0.579376 -0.573277 0.579376 -0.579376 -0.579376 0.573277 -0.579376 -0.579376 0.573277 