# vtk DataFile Version 3.0
vtk output
ASCII
DATASET POLYDATA
POINTS 1520 float
103 88 43.0104 103 87.0104 44 102.01 88 44 
104 88 43.0104 104 87.0104 44 105 88 43.0104 
105 87.0104 44 106 88 43.0104 106 87.0104 44 
106.99 88 44 103 89 43.0104 102.01 89 44 
104 89 43.0104 105 89 43.0104 106 89 43.0104 
106.99 89 44 103 90 43.0104 102.01 90 44 
104 90 43.0104 105 90 43.0104 106 90 43.0104 
107 89.0104 44 107 90 43.0104 108 90 43.0104 
108 89.0104 44 108.99 90 44 103 91 43.0104 
102.01 91 44 104 91 43.0104 105 91 43.0104 
106 91 43.0104 107 91 43.0104 108 91 43.0104 
108.99 91 44 103 92 43.0104 102.01 92 44 
104 92 43.0104 105 92 43.0104 106 92 43.0104 
107 92 43.0104 108 92 43.0104 109 91.0104 44 
109 92 43.0104 110 92 43.0104 110 91.0104 44 
110.99 92 44 103 93 43.0104 102.01 93 44 
104 93 43.0104 105 93 43.0104 106 93 43.0104 
107 93 43.0104 108 93 43.0104 109 93 43.0104 
110 93 43.0104 110.99 93 44 103 93.9896 44 
104 93.9896 44 105 93.9896 44 106 93.9896 44 
106.01 94 44 107 94 43.0104 108 94 43.0104 
109 94 43.0104 110 94 43.0104 110.99 94 44 
107 95 43.0104 106.01 95 44 108 95 43.0104 
109 95 43.0104 110 95 43.0104 110.99 95 44 
107 95.9896 44 108 95.9896 44 108.01 96 44 
109 96 43.0104 110 96 43.0104 111 95.0104 44 
111 96 43.0104 112 96 43.0104 112 95.0104 44 
112.99 96 44 109 97 43.0104 108.01 97 44 
110 97 43.0104 111 97 43.0104 112 97 43.0104 
112.99 97 44 109 98 43.0104 108.01 98 44 
110 98 43.0104 111 98 43.0104 112 98 43.0104 
112.99 98 44 109 99 43.0104 108.01 99 44 
110 99 43.0104 111 99 43.0104 112 99 43.0104 
112.99 99 44 109 100 43.0104 108.01 100 44 
110 100 43.0104 111 100 43.0104 112 100 43.0104 
112.99 100 44 109 101 43.0104 108.01 101 44 
110 101 43.0104 111 101 43.0104 111.99 101 44 
112 100.99 44 109 101.99 44 110 101.99 44 
111 101.99 44 102 87 44.0104 102 86.0104 45 
101.01 87 45 103 87 44.0104 103 86.0104 45 
104 87 44.0104 104 86.0104 45 105 87 44.0104 
105 86.0104 45 105.99 87 45 102 88 44.0104 
101.01 88 45 106 87.0104 45 106.99 88 45 
102 89 44.0104 101.01 89 45 107 88.0104 45 
107 89 44.0104 107.99 89 45 102 90 44.0104 
101.01 90 45 108 89.0104 45 108.99 90 45 
102 91 44.0104 101.01 91 45 108.99 91 45 
102 92 44.0104 101.01 92 45 109 91.0104 45 
110 92 44.9896 109.99 92 45 102 92.9896 45 
102.01 93 45 110 93 44.9896 109.99 93 45 
103 93.9896 45 104 93.9896 45 105 93.9896 45 
106 94 44.0104 105.01 94 45 110 93.0104 45 
110.99 94 45 106 95 44.0104 105.01 95 45 
110.99 95 45 106 95.9896 45 107 95.9896 45 
108 96 44.0104 107.01 96 45 111 95.0104 45 
112 96 44.9896 111.99 96 45 108 97 44.0104 
107.01 97 45 112 97 44.9896 111.99 97 45 
108 98 44.0104 107.01 98 45 112 98 44.9896 
111.99 98 45 108 99 44.0104 107.01 99 45 
112 99 44.9896 111.99 99 45 108 100 44.0104 
107.01 100 45 112 100 44.9896 111.99 100 45 
108 100.99 45 108.01 101 45 111.99 101 45 
109 101.99 45 110 101.99 45 111 101.99 45 
101 84 45.0104 101 83.0104 46 100.01 84 46 
102 84 45.0104 102 83.0104 46 103 84 45.0104 
103 83.0104 46 104 84 45.0104 104 83.0104 46 
104.99 84 46 101 85 45.0104 100.01 85 46 
102 85 45.0104 103 85 45.0104 104 85 45.0104 
104.99 85 46 101 86 45.0104 100.01 86 46 
102 86 45.0104 103 86 45.0104 104 86 45.0104 
105 85.0104 46 105 86 45.0104 106 86 45.0104 
106 85.0104 46 106.99 86 46 101 87 45.0104 
100.01 87 46 106 87 45.0104 106.99 87 46 
101 88 45.0104 100.01 88 46 106.99 88 46 
101 89 45.0104 100.01 89 46 107 89 45.9896 
106.99 89 46 101 90 45.0104 100.01 90 46 
107 89.0104 46 108 89.0104 46 108.99 90 46 
101 91 45.0104 100.01 91 46 108.99 91 46 
101 92 45.0104 100.01 92 46 109 92 45.9896 
108.99 92 46 101 93 45.0104 100.01 93 46 
102 93 45.0104 109 93 45.9896 108.99 93 46 
101 93.9896 46 102 93.9896 46 103 94 45.0104 
102.01 94 46 104 94 45.0104 105 94 45.0104 
109 93.0104 46 110 93.0104 46 110.99 94 46 
103 95 45.0104 102.01 95 46 104 95 45.0104 
105 95 45.0104 110.99 95 46 103 96 45.0104 
102.01 96 46 104 96 45.0104 105 96 45.0104 
106 96 45.0104 107 96 45.0104 111 96 45.9896 
110.99 96 46 103 97 45.0104 102.01 97 46 
104 97 45.0104 105 97 45.0104 106 97 45.0104 
107 97 45.0104 111 97 45.9896 110.99 97 46 
103 97.9896 46 104 97.9896 46 104.01 98 46 
105 98 45.0104 106 98 45.0104 107 98 45.0104 
111 98 45.9896 110.99 98 46 105 99 45.0104 
104.01 99 46 106 99 45.0104 107 99 45.0104 
111 99 45.9896 110.99 99 46 105 99.9896 46 
106 99.9896 46 106.01 100 46 107 100 45.0104 
111 100 45.9896 110.99 100 46 107 101 45.0104 
106.01 101 46 108 101 45.0104 111 101 45.9896 
110.99 101 46 107 101.99 46 108 101.99 46 
109 102 45.0104 108.01 102 46 110 102 45.0104 
111 102 45.0104 111 101.01 46 112 102 45.0104 
112 101.01 46 112.99 102 46 109 103 45.0104 
108.01 103 46 110 103 45.0104 111 103 45.0104 
111.99 103 46 112 102.99 46 109 103.99 46 
110 103.99 46 111 103.99 46 100 83 46.0104 
100 82.0104 47 99.0104 83 47 101 83 46.0104 
101 82.0104 47 102 83 46.0104 102 82.0104 47 
102.99 83 47 100 84 46.0104 99.0104 84 47 
103 83.0104 47 104 84 46.9896 103.99 84 47 
100 85 46.0104 99.0104 85 47 104 84.0104 47 
104.99 85 47 100 86 46.0104 99.0104 86 47 
105 85.0104 47 106 86 46.9896 105.99 86 47 
100 87 46.0104 99.0104 87 47 106 87 46.9896 
105.99 87 47 100 88 46.0104 99.0104 88 47 
106 88 46.9896 105.99 88 47 100 89 46.0104 
99.0104 89 47 106 88.0104 47 106.99 89 47 
100 89.9896 47 100.01 90 47 107 89.0104 47 
108 90 46.9896 107.99 90 47 100.01 91 47 
108 91 46.9896 107.99 91 47 100.01 92 47 
108 92 46.9896 107.99 92 47 100.01 93 47 
108 92.0104 47 108.99 93 47 101 93.9896 47 
102 93.9896 47 102.01 94 47 109 93.0104 47 
110 94 46.9896 109.99 94 47 102.01 95 47 
110 95 46.9896 109.99 95 47 102.01 96 47 
110 96 46.9896 109.99 96 47 102.01 97 47 
110 97 46.9896 109.99 97 47 103 97.9896 47 
104 97.9896 47 104.01 98 47 110 97.0104 47 
110.99 98 47 104.01 99 47 110.99 99 47 
105 99.9896 47 106 99.9896 47 106.01 100 47 
110.99 100 47 106.01 101 47 110.99 101 47 
107 101.99 47 108 101.99 47 108.01 102 47 
111 101.01 47 112 102 46.9896 111.99 102 47 
108.01 103 47 111 103 46.9896 110.99 103 47 
111 102.99 47 109 103.99 47 110 103.99 47 
99 82 47.0104 99 81.0104 48 98.0104 82 48 
100 82 47.0104 100 81.0104 48 101 82 47.0104 
101 81.0104 48 102 82 47.0104 102 81.0104 48 
102.99 82 48 99 83 47.0104 98.0104 83 48 
102.99 83 48 99 84 47.0104 98.0104 84 48 
103 84 47.9896 102.99 84 48 99 85 47.0104 
98.0104 85 48 103 85 47.9896 102.99 85 48 
104 85 47.9896 99 86 47.0104 98.0104 86 48 
103 85.0104 48 104 85.0104 48 105 86 47.9896 
104.99 86 48 99 87 47.0104 98.0104 87 48 
105 87 47.9896 104.99 87 48 99 88 47.0104 
98.0104 88 48 105 88 47.9896 104.99 88 48 
99 89 47.0104 98.0104 89 48 105 89 47.9896 
104.99 89 48 106 89 47.9896 99 89.9896 48 
100 89.9896 48 100.01 90 48 105 89.0104 48 
106 89.0104 48 107 90 47.9896 106.99 90 48 
100.01 91 48 107 91 47.9896 106.99 91 48 
100.01 92 48 107 92 47.9896 106.99 92 48 
100.01 93 48 107 93 47.9896 106.99 93 48 
108 93 47.9896 101 93.9896 48 102 93.9896 48 
102.01 94 48 107 93.0104 48 108 93.0104 48 
109 94 47.9896 108.99 94 48 102.01 95 48 
109 95 47.9896 108.99 95 48 102.01 96 48 
109 96 47.9896 108.99 96 48 102.01 97 48 
109 97 47.9896 108.99 97 48 103 97.9896 48 
104 97.9896 48 104.01 98 48 109 97.0104 48 
110 97.0104 48 110.99 98 48 104.01 99 48 
110.99 99 48 105 99.9896 48 106 99.9896 48 
106.01 100 48 110.99 100 48 106.01 101 48 
110.99 101 48 107 101.99 48 108 101.99 48 
108.01 102 48 111 102 47.9896 110.99 102 48 
108.01 103 48 110 103 47.9896 109.99 103 48 
110 102.99 48 109 103.99 48 98 81 48.0104 
98 80.0104 49 97.0104 81 49 99 81 48.0104 
99 80.0104 49 100 81 48.0104 100 80.0104 49 
101 81 48.0104 101 80.0104 49 101.99 81 49 
98 82 48.0104 97.0104 82 49 102 81.0104 49 
102.99 82 49 98 83 48.0104 97.0104 83 49 
102.99 83 49 98 84 48.0104 97.0104 84 49 
102.99 84 49 98 85 48.0104 97.0104 85 49 
102.99 85 49 98 85.9896 49 98.0104 86 49 
103 85.0104 49 104 85.0104 49 104.99 86 49 
98.0104 87 49 104.99 87 49 98.0104 88 49 
104.99 88 49 98.0104 89 49 104.99 89 49 
99 89.9896 49 100 90 48.0104 99.0104 90 49 
105 89.0104 49 106 89.0104 49 106.99 90 49 
100 91 48.0104 99.0104 91 49 106.99 91 49 
100 91.9896 49 100.01 92 49 106.99 92 49 
100.01 93 49 106.99 93 49 101 93.9896 49 
102 94 48.0104 101.01 94 49 107 93.0104 49 
108 93.0104 49 108.99 94 49 102 95 48.0104 
101.01 95 49 108.99 95 49 102 95.9896 49 
102.01 96 49 108.99 96 49 102.01 97 49 
108.99 97 49 103 97.9896 49 104 97.9896 49 
104.01 98 49 109 97.0104 49 110 97.0104 49 
110.99 98 49 104.01 99 49 110.99 99 49 
105 99.9896 49 106 99.9896 49 106.01 100 49 
110 100 48.9896 109.99 100 49 110 99.9896 49 
106.01 101 49 110 101 48.9896 109.99 101 49 
107 101.99 49 108 101.99 49 108.01 102 49 
110 102 48.9896 109.99 102 49 109 102.99 49 
109 103 48.9896 97 78 49.0104 97 77.0104 50 
96.0104 78 50 98 78 49.0104 98 77.0104 50 
98.9896 78 50 96 79 49.0104 96 78.0104 50 
95.0104 79 50 97 79 49.0104 98 79 49.0104 
98.9896 79 50 96 79.9896 50 96.0104 80 50 
97 80 49.0104 98 80 49.0104 99 79.0104 50 
99 80 49.0104 100 80 49.0104 100 79.0104 50 
100.99 80 50 97 81 49.0104 96.0104 81 50 
100.99 81 50 101 81 49.9896 97 82 49.0104 
96.0104 82 50 101 81.0104 50 102 81.0104 50 
102.99 82 50 96 83 49.0104 96 82.0104 50 
95.0104 83 50 97 83 49.0104 102.99 83 50 
96 83.9896 50 96.0104 84 50 97 84 49.0104 
102.99 84 50 97 85 49.0104 96.0104 85 50 
102.99 85 50 97 85.9896 50 98 85.9896 50 
98.0104 86 50 103 85.0104 50 104 85.0104 50 
104.99 86 50 98.0104 87 50 104.99 87 50 
98.0104 88 50 104.99 88 50 98.0104 89 50 
104.99 89 50 99 90 49.0104 98.0104 90 50 
105 89.0104 50 106 89.0104 50 106.99 90 50 
99 91 49.0104 98.0104 91 50 106.99 91 50 
99 91.9896 50 100 91.9896 50 100.01 92 50 
106.99 92 50 100.01 93 50 106.99 93 50 
101 94 49.0104 100.01 94 50 107 93.0104 50 
108 93.0104 50 108.99 94 50 101 95 49.0104 
100.01 95 50 108.99 95 50 101 95.9896 50 
102 95.9896 50 102.01 96 50 108.99 96 50 
102.01 97 50 108.99 97 50 103 97.9896 50 
104 97.9896 50 104.01 98 50 109 97.0104 50 
110 97.0104 50 110.99 98 50 104.01 99 50 
[...]
POINT_DATA 1520
SCALARS scalars float
LOOKUP_TABLE default
1 1 1 1 1 1 1 1 1 
1 1 1 1 1 1 1 1 1 
1 1 1 1 1 1 1 1 1 
1 1 1 1 1 1 1 1 1 
1 1 1 1 1 1 1 1 1 
1 1 1 1 1 1 1 1 1 
1 1 1 1 1 1 1 1 1 
1 1 1 1 1 1 1 1 1 
1 1 1 1 1 1 1 1 1 
1 1 1 1 1 1 1 1 1 
1 1 1 1 1 1 1 1 1 
1 1 1 1 1 1 1 1 1 
1 1 1 1 1 1 1 1 1 
1 1 1 1 1 1 1 1 1 
1 1 1 1 1 1 1 1 1 
1 1 1 1 1 1 1 1 1 
1 1 1 1 1 1 1 1 1 
1 1 1 1 1 1 1 1 1 
1 1 1 1 1 1 1 1 1 
1 1 1 1 1 1 1 1 1 
1 1 1 1 1 1 1 1 1 
1 1 1 1 1 1 1 1 1 
1 1 1 1 1 1 1 1 1 
1 1 1 1 1 1 1 1 1 
1 1 1 1 1 1 1 1 1 
1 1 1 1 1 1 1 1 1 
1 1 1 1 1 1 1 1 1 
1 1 1 1 1 1 1 1 1 
1 1 1 1 1 1 1 1 1 
1 1 1 1 1 1 1 1 1 
1 1 1 1 1 1 1 1 1 
1 1 1 1 1 1 1 1 1 
1 1 1 1 1 1 1 1 1 
1 1 1 1 1 1 1 1 1 
1 1 1 1 1 1 1 1 1 
1 1 1 1 1 1 1 1 1 
1 1 1 1 1 1 1 1 1 
1 1 1 1 1 1 1 1 1 
1 1 1 1 1 1 1 1 1 
1 1 1 1 1 1 1 1 1 
1 1 1 1 1 1 1 1 1 
1 1 1 1 1 1 1 1 1 
1 1 1 1 1 1 1 1 1 
1 1 1 1 1 1 1 1 1 
1 1 1 1 1 1 1 1 1 
1 1 1 1 1 1 1 1 1 
1 1 1 1 1 1 1 1 1 
1 1 1 1 1 1 1 1 1 
1 1 1 1 1 1 1 1 1 
1 1 1 1 1 1 1 1 1 
1 1 1 1 1 1 1 1 1 
1 1 1 1 1 1 1 1 1 
1 1 1 1 1 1 1 1 1 
1 1 1 1 1 1 1 1 1 
1 1 1 1 1 1 1 1 1 
1 1 1 1 1 1 1 1 1 
1 1 1 1 1 1 1 1 1 
1 1 1 1 1 1 1 1 1 
1 1 1 1 1 1 1 1 1 
1 1 1 1 1 1 1 1 1 
1 1 1 1 1 1 1 1 1 
1 1 1 1 1 1 1 1 1 
1 1 1 1 1 1 1 1 1 
1 1 1 1 1 1 1 1 1 
1 1 1 1 1 1 1 1 1 
1 1 1 1 1 1 1 1 1 
1 1 1 1 1 1 1 1 1 
1 1 1 1 1 1 1 1 1 
1 1 1 1 1 1 1 1 1 
1 1 1 1 1 1 1 1 1 
1 1 1 1 1 1 1 1 1 
1 1 1 1 1 1 1 1 1 
1 1 1 1 1 1 1 1 1 
1 1 1 1 1 1 1 1 1 
1 1 1 1 1 1 1 1 1 
1 1 1 1 1 1 1 1 1 
1 1 1 1 1 1 1 1 1 
1 1 1 1 1 1 1 1 1 
1 1 1 1 1 1 1 1 1 
1 1 1 1 1 1 1 1 1 
1 1 1 1 1 1 1 1 1 
1 1 1 1 1 1 1 1 1 
1 1 1 1 1 1 1 1 1 
1 1 1 1 1 1 1 1 1 
1 1 1 1 1 1 1 1 1 
1 1 1 1 1 1 1 1 1 
1 1 1 1 1 1 1 1 1 
1 1 1 1 1 1 1 1 1 
1 1 1 1 1 1 1 1 1 
1 1 1 1 1 1 1 1 1 
1 1 1 1 1 1 1 1 1 
1 1 1 1 1 1 1 1 1 
1 1 1 1 1 1 1 1 1 
1 1 1 1 1 1 1 1 1 
1 1 1 1 1 1 1 1 1 
1 1 1 1 1 1 1 1 1 
1 1 1 1 1 1 1 1 1 
1 1 1 1 1 1 1 1 1 
1 1 1 1 1 1 1 1 1 
1 1 1 1 1 1 1 1 1 
1 1 1 1 1 1 1 1 1 
1 1 1 1 1 1 1 1 1 
1 1 1 1 1 1 1 1 1 
1 1 1 1 1 1 1 1 1 
1 1 1 1 1 1 1 1 1 
1 1 1 1 1 1 1 1 1 
1 1 1 1 1 1 1 1 1 
1 1 1 1 1 1 1 1 1 
1 1 1 1 1 1 1 1 1 
1 1 1 1 1 1 1 1 1 
1 1 1 1 1 1 1 1 1 
1 1 1 1 1 1 1 1 1 
1 1 1 1 1 1 1 1 1 
1 1 1 1 1 1 1 1 1 
1 1 1 1 1 1 1 1 1 
1 1 1 1 1 1 1 1 1 
1 1 1 1 1 1 1 1 1 
1 1 1 1 1 1 1 1 1 
1 1 1 1 1 1 1 1 1 
1 1 1 1 1 1 1 1 1 
1 1 1 1 1 1 1 1 1 
1 1 1 1 1 1 1 1 1 
1 1 1 1 1 1 1 1 1 
1 1 1 1 1 1 1 1 1 
1 1 1 1 1 1 1 1 1 
1 1 1 1 1 1 1 1 1 
1 1 1 1 1 1 1 1 1 
1 1 1 1 1 1 1 1 1 
1 1 1 1 1 1 1 1 1 
1 1 1 1 1 1 1 1 1 
1 1 1 1 1 1 1 1 1 
1 1 1 1 1 1 1 1 1 
1 1 1 1 1 1 1 1 1 
1 1 1 1 1 1 1 1 1 
1 1 1 1 1 1 1 1 1 
1 1 1 1 1 1 1 1 1 
1 1 1 1 1 1 1 1 1 
1 1 1 1 1 1 1 1 1 
1 1 1 1 1 1 1 1 1 
1 1 1 1 1 1 1 1 1 
1 1 1 1 1 1 1 1 1 
1 1 1 1 1 1 1 1 1 
1 1 1 1 1 1 1 1 1 
1 1 1 1 1 1 1 1 1 
1 1 1 1 1 1 1 1 1 
1 1 1 1 1 1 1 1 1 
1 1 1 1 1 1 1 1 1 
1 1 1 1 1 1 1 1 1 
1 1 1 1 1 1 1 1 1 
1 1 1 1 1 1 1 1 1 
1 1 1 1 1 1 1 1 1 
1 1 1 1 1 1 1 1 1 
1 1 1 1 1 1 1 1 1 
1 1 1 1 1 1 1 1 1 
1 1 1 1 1 1 1 1 1 
1 1 1 1 1 1 1 1 1 
1 1 1 1 1 1 1 1 1 
1 1 1 1 1 1 1 1 1 
1 1 1 1 1 1 1 1 1 
1 1 1 1 1 1 1 1 1 
1 1 1 1 1 1 1 1 1 
1 1 1 1 1 1 1 1 1 
1 1 1 1 1 1 1 1 1 
1 1 1 1 1 1 1 1 1 
1 1 1 1 1 1 1 1 1 
1 1 1 1 1 1 1 1 1 
1 1 1 1 1 1 1 1 1 
1 1 1 1 1 1 1 1 1 
1 1 1 1 1 1 1 1 
NORMALS normals float
-0.0104155 -0.0104155 -0.999892 -0.0073655 -0.707088 -0.707088 -0.707088 -0.0073655 -0.707088 
0 -0.0104161 -0.999946 0 -0.707107 -0.707107 0 -0.0104161 -0.999946 
0 -0.707107 -0.707107 0.0104155 -0.0104155 -0.999892 0.0104155 -0.999892 -0.0104155 
0.999892 -0.0104155 -0.0104155 -0.0104161 0 -0.999946 -0.707107 0 -0.707107 
0 0 -1 0 0 -1 0.0104161 0 -0.999946 
0.579355 -0.57332 -0.579355 -0.0104161 0 -0.999946 -0.707107 0 -0.707107 
0 0 -1 0 0 -1 0 0 -1 
0.57332 -0.579355 -0.579355 0 -0.0104161 -0.999946 0.0104155 -0.0104155 -0.999892 
0.0104155 -0.999892 -0.0104155 0.999892 -0.0104155 -0.0104155 -0.0104161 0 -0.999946 
-0.707107 0 -0.707107 0 0 -1 0 0 -1 
0 0 -1 0 0 -1 0.0104161 0 -0.999946 
0.71078 -0.703376 -0.00740395 -0.0104161 0 -0.999946 -0.707107 0 -0.707107 
0 0 -1 0 0 -1 0 0 -1 
0 0 -1 0 0 -1 0.703376 -0.71078 -0.00740395 
0 -0.0104161 -0.999946 0.0105251 -0.0105251 -0.999889 0.0104161 -0.999946 0 
0.999946 -0.0104161 0 -0.0104155 0.0104155 -0.999892 -0.999892 0.0104155 -0.0104155 
0 0.0104161 -0.999946 0 0.0104161 -0.999946 0 0.0104161 -0.999946 
0 0 -1 0 0 -1 0 0 -1 
0.0105257 0 -0.999945 1 0 0 -0.0104155 0.999892 -0.0104155 
0 0.999946 -0.0104161 0 0.999946 -0.0104161 -0.57332 0.579355 -0.579355 
-0.579355 0.57332 -0.579355 -0.0104161 0 -0.999946 0 0 -1 
0 0 -1 0.0104161 0 -0.999946 0.999946 0 -0.0104161 
-0.0104155 0.0104155 -0.999892 -0.707088 0.0073655 -0.707088 0 0.0104161 -0.999946 
0 0 -1 0.0104161 0 -0.999946 0.71078 -0.703376 -0.00740395 
-0.0104155 0.999892 -0.0104155 -0.57332 0.579355 -0.579355 -0.579355 0.57332 -0.579355 
-0.0104161 0 -0.999946 0 0 -1 0.703376 -0.71078 -0.00740395 
0 -0.0104161 -0.999946 0.0105251 -0.0105251 -0.999889 0.0104161 -0.999946 0 
0.999946 -0.0104161 0 -0.0104161 0 -0.999946 -0.707107 0 -0.707107 
0 0 -1 0 0 -1 0.0105257 0 -0.999945 
1 0 0 -0.0104161 0 -0.999946 -0.707107 0 -0.707107 
0 0 -1 0 0 -1 0.0105257 0 -0.999945 
1 0 0 -0.0104161 0 -0.999946 -0.707107 0 -0.707107 
0 0 -1 0 0 -1 0.0105257 0 -0.999945 
1 0 0 -0.0104161 0 -0.999946 -0.707107 0 -0.707107 
0 0 -1 0 0 -1 0.0105251 0.0105251 -0.999889 
0.999946 0.0104161 0 -0.0104155 0.0104155 -0.999892 -0.999892 0.0104155 -0.0104155 
0 0.0104161 -0.999946 0.0104155 0.0104155 -0.999892 0.707088 0.707088 -0.0073655 
0.707107 0.707107 0 -0.0104155 0.999892 -0.0104155 0 0.999946 -0.0104161 
0.0104155 0.999892 -0.0104155 -0.0104155 -0.0104155 -0.999892 -0.0073655 -0.707088 -0.707088 
-0.707088 -0.0073655 -0.707088 0 -0.707107 -0.707107 0 -0.707107 -0.707107 
0 -0.707107 -0.707107 0 -0.707107 -0.707107 0.0073655 -0.707088 -0.707088 
0.0073655 -0.707088 -0.707088 0.57735 -0.57735 -0.57735 -0.707107 0 -0.707107 
-0.707107 0 -0.707107 0.579355 -0.579355 -0.57332 0.707107 -0.707107 0 
-0.707107 0 -0.707107 -0.707107 0 -0.707107 0.707107 -0.707107 0 
0.579355 -0.579355 -0.57332 0.707107 -0.707107 0 -0.707107 0 -0.707107 
-0.707107 0 -0.707107 0.707107 -0.707107 0 0.999946 -0.0104161 0 
-0.707107 0 -0.707107 -0.707107 0 -0.707107 0.710799 -0.703395 0 
-0.707088 0.0073655 -0.707088 -0.707088 0.0073655 -0.707088 0.707088 -0.707088 0.0073655 
0.71078 -0.00740395 0.703376 0.707088 -0.0073655 0.707088 -0.57735 0.57735 -0.57735 
-0.579355 0.579355 -0.57332 0.581381 -0.575325 0.575325 0.579355 -0.57332 0.579355 
-0.00740395 0.71078 -0.703376 0 0.710799 -0.703395 -0.575325 0.581381 -0.575325 
-0.579355 0.57332 -0.579355 -0.579355 0.57332 -0.579355 0.579355 -0.579355 0.57332 
0.999946 -0.0104161 0 -0.707088 0.0073655 -0.707088 -0.707088 0.0073655 -0.707088 
0.710799 -0.703395 0 -0.0073655 0.707088 -0.707088 -0.575325 0.581381 -0.575325 
-0.579355 0.57332 -0.579355 -0.579355 0.57332 -0.579355 0.707088 -0.707088 0.0073655 
0.71078 -0.00740395 0.703376 0.707088 -0.0073655 0.707088 -0.707107 0 -0.707107 
-0.707107 0 -0.707107 0.710799 0 0.703395 0.707107 0 0.707107 
-0.707107 0 -0.707107 -0.707107 0 -0.707107 0.710799 0 0.703395 
0.707107 0 0.707107 -0.707107 0 -0.707107 -0.707107 0 -0.707107 
0.710799 0 0.703395 0.707107 0 0.707107 -0.707088 0.0073655 -0.707088 
-0.707088 0.0073655 -0.707088 0.71078 0.00740395 0.703376 0.707107 0 0.707107 
-0.57735 0.57735 -0.57735 -0.579355 0.579355 -0.57332 0.999892 0.0104155 0.0104155 
-0.00740395 0.71078 -0.703376 0 0.710799 -0.703395 0.00744261 0.714491 -0.699605 
-0.0104155 -0.0104155 -0.999892 -0.0073655 -0.707088 -0.707088 -0.707088 -0.0073655 -0.707088 
0 -0.0104161 -0.999946 0 -0.707107 -0.707107 0 -0.0104161 -0.999946 
0 -0.999946 -0.0104161 0.0105251 -0.0105251 -0.999889 0.0104161 -0.999946 0 
0.999946 -0.0104161 0 -0.0104161 0 -0.999946 -0.707107 0 -0.707107 
0 0 -1 0 0 -1 0.0104161 0 -0.999946 
0.71078 -0.703376 -0.00740395 -0.0104161 0 -0.999946 -0.707107 0 -0.707107 
0 -0.703395 -0.710799 0 -0.703395 -0.710799 0 -0.703395 -0.710799 
0.703376 -0.71078 -0.00740395 0 -0.707107 -0.707107 0.0105251 -0.0105251 -0.999889 
0.0104161 -0.999946 0 0.999946 -0.0104161 0 -0.707107 0 -0.707107 
-0.707107 0 -0.707107 0.581381 -0.575325 -0.575325 1 0 0 
-0.707107 0 -0.707107 -0.707107 0 -0.707107 0.999946 0 0.0104161 
-0.707107 0 -0.707107 -0.707107 0 -0.707107 0.579355 -0.579355 0.57332 
0.581381 -0.575325 0.575325 -0.707107 0 -0.707107 -0.999946 0 -0.0104161 
0.575325 -0.581381 0.575325 0.0104155 -0.999892 0.0104155 0.999892 -0.0104155 0.0104155 
-0.707107 0 -0.707107 -0.999946 0 -0.0104161 0.999946 0 0.0104161 
-0.707107 0 -0.707107 -0.999946 0 -0.0104161 0.707088 -0.0073655 0.707088 
0.707107 0 0.707107 -0.0104155 0.0104155 -0.999892 -0.999892 0.0104155 -0.0104155 
-0.57332 0.579355 -0.579355 0.579355 -0.57332 0.579355 0.581381 -0.575325 0.575325 
-0.0104155 0.999892 -0.0104155 -0.703376 0.71078 -0.00740395 -0.00740395 0.703376 -0.71078 
-0.71078 0.703376 -0.00740395 0 0.703395 -0.710799 -0.575325 0.575325 -0.581381 
0.575325 -0.581381 0.575325 0.0104155 -0.999892 0.0104155 0.999892 -0.0104155 0.0104155 
-0.0104161 0 -0.999946 -0.999946 0 -0.0104161 0 0 -1 
-0.703395 0 -0.710799 0.999946 0 0.0104161 -0.0104161 0 -0.999946 
-0.999946 0 -0.0104161 0 0 -1 0 0 -1 
0 0.703395 -0.710799 -0.575325 0.575325 -0.581381 0.707088 -0.0073655 0.707088 
0.707107 0 0.707107 -0.0104155 0.0104155 -0.999892 -0.999892 0.0104155 -0.0104155 
0 0.0104161 -0.999946 0 0 -1 0 0 -1 
-0.703395 0 -0.710799 0.707107 0 0.707107 0.707107 0 0.707107 
-0.0104155 0.999892 -0.0104155 -0.703376 0.71078 -0.00740395 -0.71078 0.703376 -0.00740395 
-0.0104161 0 -0.999946 0 0 -1 -0.703395 0 -0.710799 
0.707107 0 0.707107 0.710799 0 0.703395 -0.0104155 0.0104155 -0.999892 
-0.999892 0.0104155 -0.0104155 0 0.0104161 -0.999946 -0.703395 0 -0.710799 
0.707107 0 0.707107 0.710799 0 0.703395 -0.0104155 0.999892 -0.0104155 
-0.703376 0.71078 -0.00740395 -0.71078 0.703376 -0.00740395 -0.707107 0 -0.707107 
0.707107 0 0.707107 0.710799 0 0.703395 -0.0104155 0.0104155 -0.999892 
-0.999892 0.0104155 -0.0104155 -0.57332 0.579355 -0.579355 0.581359 -0.569248 0.581359 
0.581381 -0.575325 0.575325 -0.0104155 0.999892 -0.0104155 -0.703376 0.71078 -0.00740395 
-0.00740395 0.703376 -0.71078 -0.71078 0.703376 -0.00740395 0 0.703395 -0.710799 
0 0.699625 -0.71451 0.577329 -0.583406 0.571252 0.0105257 0 -0.999945 
0.0105257 -0.999945 0 1 0 0 -0.0104155 0.0104155 -0.999892 
-0.999892 0.0104155 -0.0104155 0 0.0104161 -0.999946 0.0105251 0.0105251 -0.999889 
0.707107 0.707107 0 0.710799 0.703395 0 -0.0104155 0.999892 -0.0104155 
0 0.999946 -0.0104161 0.0104161 0.999946 0 -0.0104155 -0.0104155 -0.999892 
-0.0073655 -0.707088 -0.707088 -0.707088 -0.0073655 -0.707088 0 -0.707107 -0.707107 
0 -0.707107 -0.707107 0.0073655 -0.707088 -0.707088 0.0073655 -0.707088 -0.707088 
0.707088 -0.707088 -0.0073655 -0.707107 0 -0.707107 -0.707107 0 -0.707107 
0.707088 -0.707088 0.0073655 0.579355 -0.579355 0.57332 0.57735 -0.57735 0.57735 
-0.707107 0 -0.707107 -0.707107 0 -0.707107 0.57735 -0.57735 0.57735 
0.707088 -0.707088 0.0073655 -0.707107 0 -0.707107 -0.707107 0 -0.707107 
0.707088 -0.707088 0.0073655 0.71078 -0.00740395 0.703376 0.707088 -0.0073655 0.707088 
-0.707107 0 -0.707107 -0.707107 0 -0.707107 0.710799 0 0.703395 
0.707107 0 0.707107 -0.707107 0 -0.707107 -0.707107 0 -0.707107 
0.579355 -0.57332 0.579355 0.579355 -0.57332 0.579355 -0.707088 0.0073655 -0.707088 
-0.707088 0.0073655 -0.707088 0.57735 -0.57735 0.57735 0.707088 -0.707088 0.0073655 
-0.707088 0.707088 -0.0073655 -0.710799 0.703395 0 0.707088 -0.707088 0.0073655 
0.707088 -0.0073655 0.707088 0.707088 -0.0073655 0.707088 -1 0 0 
0.707107 0 0.707107 0.707107 0 0.707107 -1 0 0 
0.579355 -0.57332 0.579355 0.579355 -0.57332 0.579355 -0.999946 0.0104161 0 
0.57735 -0.57735 0.57735 0.707088 -0.707088 0.0073655 -0.0104161 0.999946 0 
-0.703395 0.710799 0 -0.710799 0.703395 0 0.707088 -0.707088 0.0073655 
0.707088 -0.0073655 0.707088 0.707088 -0.0073655 0.707088 -1 0 0 
0.707107 0 0.707107 0.707107 0 0.707107 -1 0 0 
0.707107 0 0.707107 0.707107 0 0.707107 -0.999946 0.0104161 0 
0.579355 -0.57332 0.579355 0.579355 -0.57332 0.579355 -0.0104161 0.999946 0 
-0.703395 0.710799 0 -0.710799 0.703395 0 0.579355 -0.579355 0.57332 
0.999946 -0.0104161 0 -0.999946 0.0104161 0 1 0 0 
-0.0104161 0.999946 0 -0.703395 0.710799 0 -0.710799 0.703395 0 
1 0 0 -0.999946 0.0104161 0 0.710799 -0.703395 0 
-0.0104161 0.999946 0 -0.703395 0.710799 0 -0.710799 0.703395 0 
0.71078 -0.703376 0.00740395 0.710799 0 0.703395 0.707107 0 0.707107 
-0.999946 0.0104161 0 0.579355 0.579355 0.57332 0.57735 0.57735 0.57735 
0.579355 0.57332 0.579355 -0.0104161 0.999946 0 0.0104155 0.999892 0.0104155 
-0.0104155 -0.0104155 -0.999892 -0.0073655 -0.707088 -0.707088 -0.707088 -0.0073655 -0.707088 
0 -0.707107 -0.707107 0 -0.707107 -0.707107 0 -0.707107 -0.707107 
0 -0.707107 -0.707107 0.0073655 -0.707088 -0.707088 0.0104155 -0.999892 -0.0104155 
0.999892 -0.0104155 -0.0104155 -0.707107 0 -0.707107 -0.707107 0 -0.707107 
1 0 0 -0.707107 0 -0.707107 -0.707107 0 -0.707107 
0.707088 -0.0073655 0.707088 0.710799 0 0.703395 -0.707107 0 -0.707107 
-0.707107 0 -0.707107 0.575325 -0.575325 0.581381 0.581381 -0.575325 0.575325 
0.0073655 -0.707088 0.707088 -0.707107 0 -0.707107 -0.999946 0 -0.0104161 
0.575325 -0.581381 0.575325 0.00740395 -0.71078 0.703376 0.707088 -0.0073655 0.707088 
0.71078 -0.00740395 0.703376 -0.707107 0 -0.707107 -0.999946 0 -0.0104161 
0.707107 0 0.707107 0.710799 0 0.703395 -0.707107 0 -0.707107 
-0.999946 0 -0.0104161 0.707107 0 0.707107 0.710799 0 0.703395 
-0.707088 0.0073655 -0.707088 -0.999892 0.0104155 -0.0104155 0.575325 -0.575325 0.581381 
0.581381 -0.575325 0.575325 0.0073655 -0.707088 0.707088 -0.0104155 0.999892 -0.0104155 
-0.575325 0.581381 -0.575325 -0.581381 0.575325 -0.575325 0.575325 -0.581381 0.575325 
0.00740395 -0.71078 0.703376 0.707088 -0.0073655 0.707088 0.71078 -0.00740395 0.703376 
-0.710799 0 -0.703395 0.707107 0 0.707107 0.710799 0 0.703395 
-1 0 0 0.707107 0 0.707107 0.710799 0 0.703395 
-0.999946 0.0104161 0 0.575325 -0.575325 0.581381 0.581381 -0.575325 0.575325 
0.0073655 -0.707088 0.707088 -0.0104161 0.999946 0 -0.575325 0.581381 -0.575325 
-0.581381 0.575325 -0.575325 0.575325 -0.581381 0.575325 0.00740395 -0.71078 0.703376 
0.707088 -0.0073655 0.707088 0.71078 -0.00740395 0.703376 -0.710799 0 -0.703395 
0.707107 0 0.707107 0.710799 0 0.703395 -1 0 0 
0.707107 0 0.707107 0.710799 0 0.703395 -0.999946 0.0104161 0 
0.579355 -0.57332 0.579355 0.581381 -0.575325 0.575325 -0.0104161 0.999946 0 
-0.703395 0.710799 0 -0.710799 0.703395 0 0.575325 -0.581381 0.575325 
0.0104161 -0.999946 0 0.999946 -0.0104161 0 -0.999946 0.0104161 0 
1 0 0 -0.0104161 0.999946 0 -0.703395 0.710799 0 
-0.710799 0.703395 0 0.999946 0 0.0104161 -0.999946 0.0104161 0 
0.999946 0 0.0104161 -0.0104161 0.999946 0 -0.703395 0.710799 0 
-0.710799 0.703395 0 0.707107 0 0.707107 0.707088 0.0073655 0.707088 
-0.999889 0.0105251 0.0105251 0.57735 0.57735 0.57735 0.57332 0.579355 0.579355 
0.57735 0.57735 0.57735 0 0.999946 0.0104161 -0.0104155 -0.0104155 -0.999892 
-0.0073655 -0.707088 -0.707088 -0.707088 -0.0073655 -0.707088 0 -0.707107 -0.707107 
0 -0.707107 -0.707107 0 -0.707107 -0.707107 0 -0.707107 -0.707107 
0.00740395 -0.71078 -0.703376 0.0104161 -0.999946 0 0.707107 -0.707107 0 
-0.707107 0 -0.707107 -0.707107 0 -0.707107 0.707107 -0.707107 0 
0.999946 -0.0104161 0 -0.707107 0 -0.707107 -0.707107 0 -0.707107 
1 0 0 -0.707107 0 -0.707107 -0.707107 0 -0.707107 
1 0 0 -0.707088 0.0073655 -0.707088 -0.707088 0.0073655 -0.707088 
0.710799 -0.703395 0 -0.707088 0.707088 -0.0073655 -0.710799 0.703395 0 
0.703395 -0.710799 0 0.0104161 -0.999946 0 0.999946 -0.0104161 0 
-1 0 0 1 0 0 -1 0 0 
1 0 0 -0.999946 0.0104161 0 0.710799 -0.703395 0 
-0.579355 0.579355 -0.57332 -0.579355 0.57332 -0.579355 -0.579355 0.57332 -0.579355 
0.703395 -0.710799 0 0.0104161 -0.999946 0 0.999946 -0.0104161 0 
-0.707088 0.0073655 -0.707088 -0.707088 0.0073655 -0.707088 1 0 0 
-0.707088 0.707088 -0.0073655 -0.710799 0.703395 0 1 0 0 
-0.999946 0.0104161 0 0.710799 -0.703395 0 -0.579355 0.579355 -0.57332 
-0.579355 0.57332 -0.579355 -0.579355 0.57332 -0.579355 0.703395 -0.710799 0 
0.0104161 -0.999946 0 0.999946 -0.0104161 0 -0.707088 0.0073655 -0.707088 
-0.707088 0.0073655 -0.707088 1 0 0 -0.707088 0.707088 -0.0073655 
-0.710799 0.703395 0 1 0 0 -0.999946 0.0104161 0 
0.710799 -0.703395 0 -0.0104161 0.999946 0 -0.703395 0.710799 0 
-0.710799 0.703395 0 0.703395 -0.710799 0 0.0104161 -0.999946 0 
0.999946 -0.0104161 0 -0.999946 0.0104161 0 0.999892 0.0104155 0.0104155 
-0.0104161 0.999946 0 -0.703395 0.710799 0 -0.710799 0.703395 0 
0.579355 0.57332 0.579355 0.579355 0.57332 0.579355 0.57735 0.57735 0.57735 
-0.999946 0.0104161 0 0.707107 0 0.707107 0.707107 0 0.707107 
-0.0104161 0.999946 0 -0.703376 0.71078 0.00740395 -0.703376 0.71078 0.00740395 
0.707088 0.0073655 0.707088 0.703376 0.00740395 0.71078 0 0.707107 0.707107 
0 0.707107 0.707107 -0.0104155 -0.0104155 -0.999892 -0.0104155 -0.999892 -0.0104155 
-0.707088 -0.707088 -0.0073655 0.0105251 -0.0105251 -0.999889 0.0104161 -0.999946 0 
0.999946 -0.0104161 0 -0.0104161 0 -0.999946 -0.71078 -0.703376 -0.00740395 
-0.999946 0 -0.0104161 0 0 -1 0.0104161 0 -0.999946 
0.71078 -0.703376 -0.00740395 -0.71078 0.703376 -0.00740395 -0.71078 0.703376 -0.00740395 
-0.0104161 0 -0.999946 0 -0.703395 -0.710799 0.703376 -0.71078 -0.00740395 
0 -0.707107 -0.707107 0.00740395 -0.71078 -0.703376 0.0104161 -0.999946 0 
0.999946 -0.0104161 0 -0.707107 0 -0.707107 -0.999946 0 -0.0104161 
0.581381 -0.575325 0.575325 0.579355 -0.579355 0.57332 -0.707107 0 -0.707107 
-0.71078 -0.703376 -0.00740395 0.575325 -0.581381 0.575325 0.0104155 -0.999892 0.0104155 
0.999892 -0.0104155 0.0104155 -0.0104161 0 -0.999946 -0.71078 -0.703376 -0.00740395 
-0.999946 0 -0.0104161 -0.703395 0 -0.710799 0.999946 0 0.0104161 
-0.579355 0.57332 -0.579355 -0.579355 0.57332 -0.579355 -0.707107 0 -0.707107 
1 0 0 -0.707088 0.0073655 -0.707088 -0.999892 0.0104155 -0.0104155 
0.710799 -0.703395 0 -0.0104155 0.999892 -0.0104155 -0.575325 0.581381 -0.575325 
-0.581381 0.575325 -0.575325 0.703395 -0.710799 0 0.0104155 -0.999892 0.0104155 
0.999892 -0.0104155 0.0104155 -0.710799 0 -0.703395 0.999946 0 0.0104161 
-0.710799 0 -0.703395 1 0 0 -0.710799 0 -0.703395 
0.710799 -0.703395 0 -0.579355 0.57332 -0.579355 -0.707107 0 -0.707107 
0.703395 -0.710799 0 0.0104155 -0.999892 0.0104155 0.999892 -0.0104155 0.0104155 
-0.707088 0.0073655 -0.707088 -0.999892 0.0104155 -0.0104155 0.999946 0 0.0104161 
-0.0104155 0.999892 -0.0104155 -0.575325 0.581381 -0.575325 -0.581381 0.575325 -0.575325 
1 0 0 -0.710799 0 -0.703395 0.710799 -0.703395 0 
-0.579355 0.57332 -0.579355 -0.999946 0 -0.0104161 0.703395 -0.710799 0 
0.0104155 -0.999892 0.0104155 0.999892 -0.0104155 0.0104155 -0.707088 0.0073655 -0.707088 
-0.999892 0.0104155 -0.0104155 0.999946 0 0.0104161 -0.0104155 0.999892 -0.0104155 
-0.703395 0.710799 0 -0.710799 0.703395 0 1 0 0 
-0.999892 0.0104155 0.0104155 0.710799 -0.703395 0 -0.0104155 0.999892 0.0104155 
-0.703395 0.710799 0 -0.710799 0.703395 0 0.703395 -0.710799 0 
0.0105251 -0.999889 0.0105251 0.999946 0 0.0104161 -0.999892 0.0104155 0.0104155 
0.57735 0.57735 0.57735 0.57735 0.57735 0.57735 0.579355 0.57332 0.579355 
-0.0104155 0.999892 0.0104155 -0.703376 0.71078 0.00740395 -0.710799 0.703395 0 
0.579355 0.57332 0.579355 0.57735 0.57735 0.57735 0.57735 0.57735 0.57735 
-0.999889 0.0105251 0.0105251 0.57332 0.579355 0.579355 0.57332 0.579355 0.579355 
0.57735 0.57735 0.57735 0.0104161 0 0.999946 0 0.999946 0.0104161 
0 0.0104161 0.999946 0 -0.999946 0.0104161 -0.703376 -0.71078 0.00740395 
0.579355 -0.579355 0.57332 0.57332 -0.579355 0.579355 -0.71078 -0.703376 0.00740395 
-0.999946 0 0.0104161 0.57735 -0.57735 0.57735 0.707088 -0.707088 0.0073655 
-0.71078 0.703376 0.00740395 -0.710799 0.703395 0 0.707088 -0.707088 0.0073655 