# vtk DataFile Version 3.0
vtk output
ASCII
DATASET POLYDATA
POINTS 5072 float
97 152 61.0312 97 151.031 62 96.0312 152 62 
98 152 61.0312 98 151.031 62 98.9688 152 62 
97 153 61.0312 96.0312 153 62 97.9688 153 62 
98 152.969 62 97 153.969 62 99 158 61.0312 
99 157.031 62 98.0312 158 62 100 158 61.0312 
100 157.031 62 100.969 158 62 99 159 61.0312 
98.0312 159 62 99.9688 159 62 100 158.969 62 
99 159.969 62 96 150 62.0312 96 149.031 63 
95.0312 150 63 96.9688 150 63 96 151 62.0312 
95.0312 151 63 97 150.031 63 97 151 62.0312 
97.9688 151 63 96 152 62.0312 95.0312 152 63 
98 151.031 63 98.9688 152 63 96 153 62.0312 
95.0312 153 63 97.9688 153 63 98 152.969 63 
96 153.969 63 97 153.969 63 98 157 62.0312 
98 156.031 63 97.0312 157 63 98.9688 157 63 
98 158 62.0312 97.0312 158 63 99 157.031 63 
100 157.031 63 100.969 158 63 98 159 62.0312 
97.0312 159 63 99.9688 159 63 100 158.969 63 
98 159.969 63 99 159.969 63 92 147 63.0312 
92 146.031 64 91.0312 147 64 92.9688 147 64 
91 148 63.0312 91 147.031 64 90.0312 148 64 
92 148 63.0312 93 147.031 64 93 148 63.0312 
94 148 63.0312 94 147.031 64 94.9688 148 64 
91 149 63.0312 90.0312 149 64 92 149 63.0312 
93 149 63.0312 94 149 63.0312 94.9688 149 64 
96 149 63.0312 96 148.031 64 95.0312 149 64 
96.9688 149 64 91 150 63.0312 90.0312 150 64 
92 150 63.0312 93 150 63.0312 94 150 63.0312 
95 149.031 64 95 150 63.0312 97 150 63.0312 
97 149.031 64 98 150 63.0312 98 149.031 64 
98.9688 150 64 91 151 63.0312 90.0312 151 64 
92 151 63.0312 93 151 63.0312 94 151 63.0312 
95 151 63.0312 98 151 63.0312 98.9688 151 64 
91 152 63.0312 90.0312 152 64 92 152 63.0312 
93 152 63.0312 94 152 63.0312 95 152 63.0312 
98.9688 152 64 91 153 63.0312 90.0312 153 64 
92 153 63.0312 93 153 63.0312 94 153 63.0312 
95 153 63.0312 98 153 63.0312 98.9688 153 64 
91 154 63.0312 90.0312 154 64 92 154 63.0312 
93 154 63.0312 94 154 63.0312 95 154 63.0312 
96 154 63.0312 97 154 63.0312 98 154 63.0312 
98.9688 154 64 91 155 63.0312 90.0312 155 64 
92 155 63.0312 93 155 63.0312 94 155 63.0312 
95 155 63.0312 96 155 63.0312 97 155 63.0312 
98 155 63.0312 98.9688 155 64 91 156 63.0312 
90.0312 156 64 92 156 63.0312 93 156 63.0312 
94 156 63.0312 95 156 63.0312 96 156 63.0312 
97 156 63.0312 98 156 63.0312 98.9688 156 64 
91 157 63.0312 90.0312 157 64 92 157 63.0312 
93 157 63.0312 94 157 63.0312 95 157 63.0312 
96 157 63.0312 97 157 63.0312 98.9688 157 64 
91 158 63.0312 90.0312 158 64 92 158 63.0312 
93 158 63.0312 94 158 63.0312 95 158 63.0312 
96 158 63.0312 97 158 63.0312 99 157.031 64 
100 157.031 64 100.969 158 64 91 159 63.0312 
90.0312 159 64 92 159 63.0312 93 159 63.0312 
94 159 63.0312 95 159 63.0312 96 159 63.0312 
97 159 63.0312 100 159 63.0312 100.969 159 64 
91 160 63.0312 90.0312 160 64 92 160 63.0312 
93 160 63.0312 94 160 63.0312 95 160 63.0312 
96 160 63.0312 97 160 63.0312 98 160 63.0312 
99 160 63.0312 100 160 63.0312 100.969 160 64 
91 161 63.0312 90.0312 161 64 92 161 63.0312 
93 161 63.0312 94 161 63.0312 95 161 63.0312 
96 161 63.0312 97 161 63.0312 98 161 63.0312 
99 161 63.0312 100 161 63.0312 100.969 161 64 
91 162 63.0312 90.0312 162 64 92 162 63.0312 
93 162 63.0312 94 162 63.0312 95 162 63.0312 
96 162 63.0312 97 162 63.0312 98 162 63.0312 
99 162 63.0312 100 162 63.0312 101 161.031 64 
101 162 63.0312 102 162 63.0312 102 161.031 64 
102.969 162 64 91 163 63.0312 90.0312 163 64 
92 163 63.0312 93 163 63.0312 94 163 63.0312 
95 163 63.0312 96 163 63.0312 97 163 63.0312 
98 163 63.0312 99 163 63.0312 100 163 63.0312 
101 163 63.0312 101.969 163 64 102 162.969 64 
91 163.969 64 92 163.969 64 93 163.969 64 
94 163.969 64 95 163.969 64 96 163.969 64 
97 163.969 64 98 163.969 64 99 163.969 64 
100 163.969 64 101 163.969 64 92 147 64.9688 
91 147.031 65 90.0312 148 65 92 147.031 65 
93 147.031 65 94 148 64.9688 93.9688 148 65 
90.0312 149 65 94 149 64.9688 93.9688 149 65 
96 149 64.9688 90.0312 150 65 94 149.031 65 
95 149.031 65 96 149.031 65 97 149.031 65 
98 149.031 65 98.9688 150 65 90.0312 151 65 
98.9688 151 65 90.0312 152 65 98.9688 152 65 
90.0312 153 65 98.9688 153 65 90.0312 154 65 
98.9688 154 65 90.0312 155 65 98.9688 155 65 
90.0312 156 65 98.9688 156 65 90.0312 157 65 
98.9688 157 65 90.0312 158 65 99 157.031 65 
100 157.031 65 100.969 158 65 90.0312 159 65 
100.969 159 65 90.0312 160 65 100.969 160 65 
90.0312 161 65 100.969 161 65 90.0312 162 65 
101 161.031 65 102 161.031 65 102.969 162 65 
90.0312 163 65 101.969 163 65 102 162.969 65 
91 163.969 65 92 163.969 65 93 163.969 65 
94 163.969 65 95 163.969 65 96 163.969 65 
97 163.969 65 98 163.969 65 99 163.969 65 
100 163.969 65 101 163.969 65 91 148 65.9688 
92 148 65.9688 93 148 65.9688 91 149 65.9688 
92 149 65.9688 93 149 65.9688 91 149.031 66 
90.0312 150 66 92 149.031 66 93 150 65.9688 
92.9688 150 66 94 150 65.9688 95 150 65.9688 
96 150 65.9688 96.0312 150 66 97 149.031 66 
98 149.031 66 98.9688 150 66 90.0312 151 66 
93 151 65.9688 92.9688 151 66 94 151 65.9688 
95 151 65.9688 95.0312 151 66 96 150.031 66 
98.9688 151 66 90.0312 152 66 93 151.031 66 
94 151.031 66 95 151.031 66 98.9688 152 66 
90.0312 153 66 98.9688 153 66 90.0312 154 66 
98.9688 154 66 90.0312 155 66 98.9688 155 66 
90.0312 156 66 98.9688 156 66 90.0312 157 66 
98.9688 157 66 90.0312 158 66 99 157.031 66 
100 157.031 66 100.969 158 66 90.0312 159 66 
100.969 159 66 90.0312 160 66 100.969 160 66 
90.0312 161 66 100.969 161 66 90.0312 162 66 
101 161.031 66 102 161.031 66 102.969 162 66 
90.0312 163 66 101.969 163 66 102 162.969 66 
91 164 65.0312 90.0312 164 66 92 164 65.0312 
93 164 65.0312 94 164 65.0312 95 164 65.0312 
96 164 65.0312 97 164 65.0312 98 164 65.0312 
99 164 65.0312 100 164 65.0312 100.969 164 66 
101 163.969 66 91 165 65.0312 90.0312 165 66 
92 165 65.0312 93 165 65.0312 94 165 65.0312 
95 165 65.0312 96 165 65.0312 97 165 65.0312 
98 165 65.0312 99 165 65.0312 99.9688 165 66 
100 164.969 66 91 165.969 66 92 165.969 66 
93 165.969 66 94 165.969 66 95 165.969 66 
96 165.969 66 97 165.969 66 98 165.969 66 
99 165.969 66 91 149.031 67 90.0312 150 67 
92 150 66.9688 91.9688 150 67 97 149.031 67 
96.0312 150 67 98 150 66.9688 97.9688 150 67 
90.0312 151 67 92 151 66.9688 91.9688 151 67 
96 151 66.9688 96.0312 151 67 98 151 66.9688 
97.9688 151 67 90.0312 152 67 92 151.031 67 
93 151.031 67 94 151.031 67 95 151.031 67 
96 151.031 67 98 152 66.9688 97.9688 152 67 
90 153 66.0312 90 152.031 67 89.0312 153 67 
98 153 66.9688 97.9688 153 67 90 154 66.0312 
89.0312 154 67 98 154 66.9688 97.9688 154 67 
90 155 66.0312 89.0312 155 67 98 155 66.9688 
97.9688 155 67 90 156 66.0312 89.0312 156 67 
98 156 66.9688 97.9688 156 67 90 157 66.0312 
89.0312 157 67 98 156.031 67 98.9688 157 67 
90 158 66.0312 89.0312 158 67 99 157.031 67 
100 158 66.9688 99.9688 158 67 90 159 66.0312 
89.0312 159 67 100 159 66.9688 99.9688 159 67 
90 160 66.0312 89.0312 160 67 100 160 66.9688 
99.9688 160 67 90 161 66.0312 89.0312 161 67 
100 160.031 67 100.969 161 67 90 161.969 67 
90.0312 162 67 101 161.031 67 102 162 66.9688 
101.969 162 67 90.0312 163 67 101 163 66.9688 
100.969 163 67 101 162.969 67 90.0312 164 67 
100.969 164 67 90.0312 165 67 99.9688 165 67 
100 164.969 67 91 165.969 67 92 165.969 67 
93 165.969 67 94 165.969 67 95 165.969 67 
96 165.969 67 97 165.969 67 98 165.969 67 
99 165.969 67 91 150 67.9688 97 150 67.9688 
91 151 67.9688 97 151 67.9688 91 152 67.9688 
92 152 67.9688 93 152 67.9688 94 152 67.9688 
95 152 67.9688 96 152 67.9688 97 152 67.9688 
90 152.031 68 89.0312 153 68 91 153 67.9688 
90.9688 153 68 92 153 67.9688 93 153 67.9688 
94 153 67.9688 95 153 67.9688 96 153 67.9688 
97 153 67.9688 89 154 67.0312 89 153.031 68 
88.0312 154 68 91 153.031 68 92 153.031 68 
93 153.031 68 94 153.031 68 95 154 67.9688 
94.9688 154 68 96 154 67.9688 97 154 67.9688 
89 155 67.0312 88.0312 155 68 95 155 67.9688 
94.9688 155 68 96 155 67.9688 97 155 67.9688 
89 156 67.0312 88.0312 156 68 95 155.031 68 
96 155.031 68 97 156 67.9688 96.9688 156 68 
89 157 67.0312 88.0312 157 68 97 157 67.9688 
96.9688 157 68 98 157 67.9688 89 158 67.0312 
88.0312 158 68 97 157.031 68 98 157.031 68 
99 158 67.9688 98.9688 158 68 89 159 67.0312 
88.0312 159 68 99 159 67.9688 98.9688 159 68 
89 160 67.0312 88.0312 160 68 99 160 67.9688 
98.9688 160 68 89 161 67.0312 88.0312 161 68 
99 161 67.9688 98.9688 161 68 100 161 67.9688 
89 161.969 68 90 161.969 68 90.0312 162 68 
99 161.031 68 100 161.031 68 101 162 67.9688 
100.969 162 68 90.0312 163 68 100.969 163 68 
90.0312 164 68 100.969 164 68 90.0312 165 68 
99.9688 165 68 100 164.969 68 91 165.969 68 
92 165.969 68 93 166 67.0312 92.0312 166 68 
94 166 67.0312 95 166 67.0312 96 166 67.0312 
96.9688 166 68 97 165.969 68 98 165.969 68 
99 165.969 68 93 167 67.0312 92.0312 167 68 
94 167 67.0312 95 167 67.0312 95.9688 167 68 
96 166.969 68 93 167.969 68 94 167.969 68 
95 167.969 68 90 153 68.9688 89 153.031 69 
88.0312 154 69 90 153.031 69 91 153.031 69 
92 153.031 69 93 153.031 69 94 153.031 69 
94.9688 154 69 88.0312 155 69 94.9688 155 69 
88.0312 156 69 95 155.031 69 96 155.031 69 
96.9688 156 69 88.0312 157 69 96.9688 157 69 
88.0312 158 69 97 157.031 69 98 157.031 69 
98.9688 158 69 88.0312 159 69 98.9688 159 69 
88.0312 160 69 98.9688 160 69 89 160.969 69 
89 161 68.9688 89.0312 161 69 99 160.031 69 
99 161 68.0312 99.9688 161 69 90 161.969 69 
90.0312 162 69 100 161.031 69 100.969 162 69 
90.0312 163 69 100.969 163 69 90.0312 164 69 
100.969 164 69 90.0312 165 69 100 165 68.0312 
100.969 165 69 91 165.969 69 92 166 68.0312 
91.0312 166 69 96.9688 166 69 97 165.969 69 
98 165.969 69 99 165.969 69 100 165.969 69 
91 167 68.0312 91 166.031 69 90.0312 167 69 
92 167 68.0312 96 167 68.0312 96.9688 167 69 
91 167.969 69 92 167.969 69 93 167.969 69 
94 167.969 69 95 167.969 69 96 167.969 69 
89 154 69.9688 90 154 69.9688 90.0312 154 70 
91 153.031 70 92 153.031 70 93 153.031 70 
94 153.031 70 94.9688 154 70 89 155 69.9688 
90 155 69.9688 90.0312 155 70 94.9688 155 70 
89 156 69.9688 90 156 69.9688 90.0312 156 70 
[...]
POINT_DATA 5072
SCALARS scalars float
LOOKUP_TABLE default
1 1 1 1 1 1 1 1 1 
1 1 1 1 1 1 1 1 1 
1 1 1 1 1 1 1 1 1 
1 1 1 1 1 1 1 1 1 
1 1 1 1 1 1 1 1 1 
1 1 1 1 1 1 1 1 1 
1 1 1 1 1 1 1 1 1 
1 1 1 1 1 1 1 1 1 
1 1 1 1 1 1 1 1 1 
1 1 1 1 1 1 1 1 1 
1 1 1 1 1 1 1 1 1 
1 1 1 1 1 1 1 1 1 
1 1 1 1 1 1 1 1 1 
1 1 1 1 1 1 1 1 1 
1 1 1 1 1 1 1 1 1 
1 1 1 1 1 1 1 1 1 
1 1 1 1 1 1 1 1 1 
1 1 1 1 1 1 1 1 1 
1 1 1 1 1 1 1 1 1 
1 1 1 1 1 1 1 1 1 
1 1 1 1 1 1 1 1 1 
1 1 1 1 1 1 1 1 1 
1 1 1 1 1 1 1 1 1 
1 1 1 1 1 1 1 1 1 
1 1 1 1 1 1 1 1 1 
1 1 1 1 1 1 1 1 1 
1 1 1 1 1 1 1 1 1 
1 1 1 1 1 1 1 1 1 
1 1 1 1 1 1 1 1 1 
1 1 1 1 1 1 1 1 1 
1 1 1 1 1 1 1 1 1 
1 1 1 1 1 1 1 1 1 
1 1 1 1 1 1 1 1 1 
1 1 1 1 1 1 1 1 1 
1 1 1 1 1 1 1 1 1 
1 1 1 1 1 1 1 1 1 
1 1 1 1 1 1 1 1 1 
1 1 1 1 1 1 1 1 1 
1 1 1 1 1 1 1 1 1 
1 1 1 1 1 1 1 1 1 
1 1 1 1 1 1 1 1 1 
1 1 1 1 1 1 1 1 1 
1 1 1 1 1 1 1 1 1 
1 1 1 1 1 1 1 1 1 
1 1 1 1 1 1 1 1 1 
1 1 1 1 1 1 1 1 1 
1 1 1 1 1 1 1 1 1 
1 1 1 1 1 1 1 1 1 
1 1 1 1 1 1 1 1 1 
1 1 1 1 1 1 1 1 1 
1 1 1 1 1 1 1 1 1 
1 1 1 1 1 1 1 1 1 
1 1 1 1 1 1 1 1 1 
1 1 1 1 1 1 1 1 1 
1 1 1 1 1 1 1 1 1 
1 1 1 1 1 1 1 1 1 
1 1 1 1 1 1 1 1 1 
1 1 1 1 1 1 1 1 1 
1 1 1 1 1 1 1 1 1 
1 1 1 1 1 1 1 1 1 
1 1 1 1 1 1 1 1 1 
1 1 1 1 1 1 1 1 1 
1 1 1 1 1 1 1 1 1 
1 1 1 1 1 1 1 1 1 
1 1 1 1 1 1 1 1 1 
1 1 1 1 1 1 1 1 1 
1 1 1 1 1 1 1 1 1 
1 1 1 1 1 1 1 1 1 
1 1 1 1 1 1 1 1 1 
1 1 1 1 1 1 1 1 1 
1 1 1 1 1 1 1 1 1 
1 1 1 1 1 1 1 1 1 
1 1 1 1 1 1 1 1 1 
1 1 1 1 1 1 1 1 1 
1 1 1 1 1 1 1 1 1 
1 1 1 1 1 1 1 1 1 
1 1 1 1 1 1 1 1 1 
1 1 1 1 1 1 1 1 1 
1 1 1 1 1 1 1 1 1 
1 1 1 1 1 1 1 1 1 
1 1 1 1 1 1 1 1 1 
1 1 1 1 1 1 1 1 1 
1 1 1 1 1 1 1 1 1 
1 1 1 1 1 1 1 1 1 
1 1 1 1 1 1 1 1 1 
1 1 1 1 1 1 1 1 1 
1 1 1 1 1 1 1 1 1 
1 1 1 1 1 1 1 1 1 
1 1 1 1 1 1 1 1 1 
1 1 1 1 1 1 1 1 1 
1 1 1 1 1 1 1 1 1 
1 1 1 1 1 1 1 1 1 
1 1 1 1 1 1 1 1 1 
1 1 1 1 1 1 1 1 1 
1 1 1 1 1 1 1 1 1 
1 1 1 1 1 1 1 1 1 
1 1 1 1 1 1 1 1 1 
1 1 1 1 1 1 1 1 1 
1 1 1 1 1 1 1 1 1 
1 1 1 1 1 1 1 1 1 
1 1 1 1 1 1 1 1 1 
1 1 1 1 1 1 1 1 1 
1 1 1 1 1 1 1 1 1 
1 1 1 1 1 1 1 1 1 
1 1 1 1 1 1 1 1 1 
1 1 1 1 1 1 1 1 1 
1 1 1 1 1 1 1 1 1 
1 1 1 1 1 1 1 1 1 
1 1 1 1 1 1 1 1 1 
1 1 1 1 1 1 1 1 1 
1 1 1 1 1 1 1 1 1 
1 1 1 1 1 1 1 1 1 
1 1 1 1 1 1 1 1 1 
1 1 1 1 1 1 1 1 1 
1 1 1 1 1 1 1 1 1 
1 1 1 1 1 1 1 1 1 
1 1 1 1 1 1 1 1 1 
1 1 1 1 1 1 1 1 1 
1 1 1 1 1 1 1 1 1 
1 1 1 1 1 1 1 1 1 
1 1 1 1 1 1 1 1 1 
1 1 1 1 1 1 1 1 1 
1 1 1 1 1 1 1 1 1 
1 1 1 1 1 1 1 1 1 
1 1 1 1 1 1 1 1 1 
1 1 1 1 1 1 1 1 1 
1 1 1 1 1 1 1 1 1 
1 1 1 1 1 1 1 1 1 
1 1 1 1 1 1 1 1 1 
1 1 1 1 1 1 1 1 1 
1 1 1 1 1 1 1 1 1 
1 1 1 1 1 1 1 1 1 
1 1 1 1 1 1 1 1 1 
1 1 1 1 1 1 1 1 1 
1 1 1 1 1 1 1 1 1 
1 1 1 1 1 1 1 1 1 
1 1 1 1 1 1 1 1 1 
1 1 1 1 1 1 1 1 1 
1 1 1 1 1 1 1 1 1 
1 1 1 1 1 1 1 1 1 
1 1 1 1 1 1 1 1 1 
1 1 1 1 1 1 1 1 1 
1 1 1 1 1 1 1 1 1 
1 1 1 1 1 1 1 1 1 
1 1 1 1 1 1 1 1 1 
1 1 1 1 1 1 1 1 1 
1 1 1 1 1 1 1 1 1 
1 1 1 1 1 1 1 1 1 
1 1 1 1 1 1 1 1 1 
1 1 1 1 1 1 1 1 1 
1 1 1 1 1 1 1 1 1 
1 1 1 1 1 1 1 1 1 
1 1 1 1 1 1 1 1 1 
1 1 1 1 1 1 1 1 1 
1 1 1 1 1 1 1 1 1 
1 1 1 1 1 1 1 1 1 
1 1 1 1 1 1 1 1 1 
1 1 1 1 1 1 1 1 1 
1 1 1 1 1 1 1 1 1 
1 1 1 1 1 1 1 1 1 
1 1 1 1 1 1 1 1 1 
1 1 1 1 1 1 1 1 1 
1 1 1 1 1 1 1 1 1 
1 1 1 1 1 1 1 1 1 
1 1 1 1 1 1 1 1 1 
1 1 1 1 1 1 1 1 1 
1 1 1 1 1 1 1 1 1 
1 1 1 1 1 1 1 1 1 
1 1 1 1 1 1 1 1 1 
1 1 1 1 1 1 1 1 1 
1 1 1 1 1 1 1 1 1 
1 1 1 1 1 1 1 1 1 
1 1 1 1 1 1 1 1 1 
1 1 1 1 1 1 1 1 1 
1 1 1 1 1 1 1 1 1 
1 1 1 1 1 1 1 1 1 
1 1 1 1 1 1 1 1 1 
1 1 1 1 1 1 1 1 1 
1 1 1 1 1 1 1 1 1 
1 1 1 1 1 1 1 1 1 
1 1 1 1 1 1 1 1 1 
1 1 1 1 1 1 1 1 1 
1 1 1 1 1 1 1 1 1 
1 1 1 1 1 1 1 1 1 
1 1 1 1 1 1 1 1 1 
1 1 1 1 1 1 1 1 1 
1 1 1 1 1 1 1 1 1 
1 1 1 1 1 1 1 1 1 
1 1 1 1 1 1 1 1 1 
1 1 1 1 1 1 1 1 1 
1 1 1 1 1 1 1 1 1 
1 1 1 1 1 1 1 1 1 
1 1 1 1 1 1 1 1 1 
1 1 1 1 1 1 1 1 1 
1 1 1 1 1 1 1 1 1 
1 1 1 1 1 1 1 1 1 
1 1 1 1 1 1 1 1 1 
1 1 1 1 1 1 1 1 1 
1 1 1 1 1 1 1 1 1 
1 1 1 1 1 1 1 1 1 
1 1 1 1 1 1 1 1 1 
1 1 1 1 1 1 1 1 1 
1 1 1 1 1 1 1 1 1 
1 1 1 1 1 1 1 1 1 
1 1 1 1 1 1 1 1 1 
1 1 1 1 1 1 1 1 1 
1 1 1 1 1 1 1 1 1 
1 1 1 1 1 1 1 1 1 
1 1 1 1 1 1 1 1 1 
1 1 1 1 1 1 1 1 1 
1 1 1 1 1 1 1 1 1 
1 1 1 1 1 1 1 1 1 
1 1 1 1 1 1 1 1 1 
1 1 1 1 1 1 1 1 1 
1 1 1 1 1 1 1 1 1 
1 1 1 1 1 1 1 1 1 
1 1 1 1 1 1 1 1 1 
1 1 1 1 1 1 1 1 1 
1 1 1 1 1 1 1 1 1 
1 1 1 1 1 1 1 1 1 
1 1 1 1 1 1 1 1 1 
1 1 1 1 1 1 1 1 1 
1 1 1 1 1 1 1 1 1 
1 1 1 1 1 1 1 1 1 
1 1 1 1 1 1 1 1 1 
1 1 1 1 1 1 1 1 1 
1 1 1 1 1 1 1 1 1 
1 1 1 1 1 1 1 1 1 
1 1 1 1 1 1 1 1 1 
1 1 1 1 1 1 1 1 1 
1 1 1 1 1 1 1 1 1 
1 1 1 1 1 1 1 1 1 
1 1 1 1 1 1 1 1 1 
1 1 1 1 1 1 1 1 1 
1 1 1 1 1 1 1 1 1 
1 1 1 1 1 1 1 1 1 
1 1 1 1 1 1 1 1 1 
1 1 1 1 1 1 1 1 1 
1 1 1 1 1 1 1 1 1 
1 1 1 1 1 1 1 1 1 
1 1 1 1 1 1 1 1 1 
1 1 1 1 1 1 1 1 1 
1 1 1 1 1 1 1 1 1 
1 1 1 1 1 1 1 1 1 
1 1 1 1 1 1 1 1 1 
1 1 1 1 1 1 1 1 1 
1 1 1 1 1 1 1 1 1 
1 1 1 1 1 1 1 1 1 
1 1 1 1 1 1 1 1 1 
1 1 1 1 1 1 1 1 1 
1 1 1 1 1 1 1 1 1 
1 1 1 1 1 1 1 1 1 
1 1 1 1 1 1 1 1 1 
1 1 1 1 1 1 1 1 1 
1 1 1 1 1 1 1 1 1 
1 1 1 1 1 1 1 1 1 
1 1 1 1 1 1 1 1 1 
1 1 1 1 1 1 1 1 1 
1 1 1 1 1 1 1 1 1 
1 1 1 1 1 1 1 1 1 
1 1 1 1 1 1 1 1 1 
1 1 1 1 1 1 1 1 1 
1 1 1 1 1 1 1 1 1 
1 1 1 1 1 1 1 1 1 
1 1 1 1 1 1 1 1 1 
1 1 1 1 1 1 1 1 1 
1 1 1 1 1 1 1 1 1 
1 1 1 1 1 1 1 1 1 
1 1 1 1 1 1 1 1 1 
1 1 1 1 1 1 1 1 1 
1 1 1 1 1 1 1 1 1 
1 1 1 1 1 1 1 1 1 
1 1 1 1 1 1 1 1 1 
1 1 1 1 1 1 1 1 1 
1 1 1 1 1 1 1 1 1 
1 1 1 1 1 1 1 1 1 
1 1 1 1 1 1 1 1 1 
1 1 1 1 1 1 1 1 1 
1 1 1 1 1 1 1 1 1 
1 1 1 1 1 1 1 1 1 
1 1 1 1 1 1 1 1 1 
1 1 1 1 1 1 1 1 1 
1 1 1 1 1 1 1 1 1 
1 1 1 1 1 1 1 1 1 
1 1 1 1 1 1 1 1 1 
1 1 1 1 1 1 1 1 1 
1 1 1 1 1 1 1 1 1 
1 1 1 1 1 1 1 1 1 
1 1 1 1 1 1 1 1 1 
1 1 1 1 1 1 1 1 1 
1 1 1 1 1 1 1 1 1 
1 1 1 1 1 1 1 1 1 
1 1 1 1 1 1 1 1 1 
1 1 1 1 1 1 1 1 1 
1 1 1 1 1 1 1 1 1 
1 1 1 1 1 1 1 1 1 
1 1 1 1 1 1 1 1 1 
1 1 1 1 1 1 1 1 1 
1 1 1 1 1 1 1 1 1 
1 1 1 1 1 1 1 1 1 
1 1 1 1 1 1 1 1 1 
1 1 1 1 1 1 1 1 1 
1 1 1 1 1 1 1 1 1 
1 1 1 1 1 1 1 1 1 
1 1 1 1 1 1 1 1 1 
1 1 1 1 1 1 1 1 1 
1 1 1 1 1 1 1 1 1 
1 1 1 1 1 1 1 1 1 
1 1 1 1 1 1 1 1 1 
1 1 1 1 1 1 1 1 1 
1 1 1 1 1 1 1 1 1 
1 1 1 1 1 1 1 1 1 
1 1 1 1 1 1 1 1 1 
1 1 1 1 1 1 1 1 1 
1 1 1 1 1 1 1 1 1 
1 1 1 1 1 1 1 1 1 
1 1 1 1 1 1 1 1 1 
1 1 1 1 1 1 1 1 1 
1 1 1 1 1 1 1 1 1 
1 1 1 1 1 1 1 1 1 
1 1 1 1 1 1 1 1 1 
1 1 1 1 1 1 1 1 1 
1 1 1 1 1 1 1 1 1 
1 1 1 1 1 1 1 1 1 
1 1 1 1 1 1 1 1 1 
1 1 1 1 1 1 1 1 1 
1 1 1 1 1 1 1 1 1 
1 1 1 1 1 1 1 1 1 
1 1 1 1 1 1 1 1 1 
1 1 1 1 1 1 1 1 1 
1 1 1 1 1 1 1 1 1 
1 1 1 1 1 1 1 1 1 
1 1 1 1 1 1 1 1 1 
1 1 1 1 1 1 1 1 1 
1 1 1 1 1 1 1 1 1 
1 1 1 1 1 1 1 1 1 
1 1 1 1 1 1 1 1 1 
1 1 1 1 1 1 1 1 1 
1 1 1 1 1 1 1 1 1 
1 1 1 1 1 1 1 1 1 
1 1 1 1 1 1 1 1 1 
1 1 1 1 1 1 1 1 1 
1 1 1 1 1 1 1 1 1 
1 1 1 1 1 1 1 1 1 
1 1 1 1 1 1 1 1 1 
1 1 1 1 1 1 1 1 1 
1 1 1 1 1 1 1 1 1 
1 1 1 1 1 1 1 1 1 
1 1 1 1 1 1 1 1 1 
1 1 1 1 1 1 1 1 1 
1 1 1 1 1 1 1 1 1 
1 1 1 1 1 1 1 1 1 
1 1 1 1 1 1 1 1 1 
1 1 1 1 1 1 1 1 1 
1 1 1 1 1 1 1 1 1 
1 1 1 1 1 1 1 1 1 
1 1 1 1 1 1 1 1 1 
1 1 1 1 1 1 1 1 1 
1 1 1 1 1 1 1 1 1 
1 1 1 1 1 1 1 1 1 
1 1 1 1 1 1 1 1 1 
1 1 1 1 1 1 1 1 1 
1 1 1 1 1 1 1 1 1 
1 1 1 1 1 1 1 1 1 
1 1 1 1 1 1 1 1 1 
1 1 1 1 1 1 1 1 1 
1 1 1 1 1 1 1 1 1 
1 1 1 1 1 1 1 1 1 
1 1 1 1 1 1 1 1 1 
1 1 1 1 1 1 1 1 1 
1 1 1 1 1 1 1 1 1 
1 1 1 1 1 1 1 1 1 
1 1 1 1 1 1 1 1 1 
1 1 1 1 1 1 1 1 1 
1 1 1 1 1 1 1 1 1 
1 1 1 1 1 1 1 1 1 
1 1 1 1 1 1 1 1 1 
1 1 1 1 1 1 1 1 1 
1 1 1 1 1 1 1 1 1 
1 1 1 1 1 1 1 1 1 
1 1 1 1 1 1 1 1 1 
1 1 1 1 1 1 1 1 1 
1 1 1 1 1 1 1 1 1 
1 1 1 1 1 1 1 1 1 
1 1 1 1 1 1 1 1 1 
1 1 1 1 1 1 1 1 1 
1 1 1 1 1 1 1 1 1 
1 1 1 1 1 1 1 1 1 
1 1 1 1 1 1 1 1 1 
1 1 1 1 1 1 1 1 1 
1 1 1 1 1 1 1 1 1 
1 1 1 1 1 1 1 1 1 
1 1 1 1 1 1 1 1 1 
1 1 1 1 1 1 1 1 1 
1 1 1 1 1 1 1 1 1 
1 1 1 1 1 1 1 1 1 
1 1 1 1 1 1 1 1 1 
1 1 1 1 1 1 1 1 1 
1 1 1 1 1 1 1 1 1 
1 1 1 1 1 1 1 1 1 
1 1 1 1 1 1 1 1 1 
1 1 1 1 1 1 1 1 1 
1 1 1 1 1 1 1 1 1 
1 1 1 1 1 1 1 1 1 
1 1 1 1 1 1 1 1 1 
1 1 1 1 1 1 1 1 1 
1 1 1 1 1 1 1 1 1 
1 1 1 1 1 1 1 1 1 
1 1 1 1 1 1 1 1 1 
1 1 1 1 1 1 1 1 1 
1 1 1 1 1 1 1 1 1 
1 1 1 1 1 1 1 1 1 
1 1 1 1 1 1 1 1 1 
1 1 1 1 1 1 1 1 1 
1 1 1 1 1 1 1 1 1 
1 1 1 1 1 1 1 1 1 
1 1 1 1 1 1 1 1 1 
1 1 1 1 1 1 1 1 1 
1 1 1 1 1 1 1 1 1 
1 1 1 1 1 1 1 1 1 
1 1 1 1 1 1 1 1 1 
1 1 1 1 1 1 1 1 1 
1 1 1 1 1 1 1 1 1 
1 1 1 1 1 1 1 1 1 
1 1 1 1 1 1 1 1 1 
1 1 1 1 1 1 1 1 1 
1 1 1 1 1 1 1 1 1 
1 1 1 1 1 1 1 1 1 
1 1 1 1 1 1 1 1 1 
1 1 1 1 1 1 1 1 1 
1 1 1 1 1 1 1 1 1 
1 1 1 1 1 1 1 1 1 
1 1 1 1 1 1 1 1 1 
1 1 1 1 1 1 1 1 1 
1 1 1 1 1 1 1 1 1 
1 1 1 1 1 1 1 1 1 
1 1 1 1 1 1 1 1 1 
1 1 1 1 1 1 1 1 1 
1 1 1 1 1 1 1 1 1 
1 1 1 1 1 1 1 1 1 
1 1 1 1 1 1 1 1 1 
1 1 1 1 1 1 1 1 1 
1 1 1 1 1 1 1 1 1 
1 1 1 1 1 1 1 1 1 
1 1 1 1 1 1 1 1 1 
1 1 1 1 1 1 1 1 1 
1 1 1 1 1 1 1 1 1 
1 1 1 1 1 1 1 1 1 
1 1 1 1 1 1 1 1 1 
1 1 1 1 1 1 1 1 1 
1 1 1 1 1 1 1 1 1 
1 1 1 1 1 1 1 1 1 
1 1 1 1 1 1 1 1 1 
1 1 1 1 1 1 1 1 1 
1 1 1 1 1 1 1 1 1 
1 1 1 1 1 1 1 1 1 
1 1 1 1 1 1 1 1 1 
1 1 1 1 1 1 1 1 1 
1 1 1 1 1 1 1 1 1 
1 1 1 1 1 1 1 1 1 
1 1 1 1 1 1 1 1 1 
1 1 1 1 1 1 1 1 1 
1 1 1 1 1 1 1 1 1 
1 1 1 1 1 1 1 1 1 
1 1 1 1 1 1 1 1 1 
1 1 1 1 1 1 1 1 1 
1 1 1 1 1 1 1 1 1 
1 1 1 1 1 1 1 1 1 
1 1 1 1 1 1 1 1 1 
1 1 1 1 1 1 1 1 1 
1 1 1 1 1 1 1 1 1 
1 1 1 1 1 1 1 1 1 
1 1 1 1 1 1 1 1 1 
1 1 1 1 1 1 1 1 1 
1 1 1 1 1 1 1 1 1 
1 1 1 1 1 1 1 1 1 
1 1 1 1 1 1 1 1 1 
1 1 1 1 1 1 1 1 1 
1 1 1 1 1 1 1 1 1 
1 1 1 1 1 1 1 1 1 
1 1 1 1 1 1 1 1 1 
1 1 1 1 1 1 1 1 1 
1 1 1 1 1 1 1 1 1 
1 1 1 1 1 1 1 1 1 
1 1 1 1 1 1 1 1 1 
1 1 1 1 1 1 1 1 1 
1 1 1 1 1 1 1 1 1 
1 1 1 1 1 1 1 1 1 
1 1 1 1 1 1 1 1 1 
1 1 1 1 1 1 1 1 1 
1 1 1 1 1 1 1 1 1 
1 1 1 1 1 1 1 1 1 
1 1 1 1 1 1 1 1 1 
1 1 1 1 1 1 1 1 1 
1 1 1 1 1 1 1 1 1 
1 1 1 1 1 1 1 1 1 
1 1 1 1 1 1 1 1 1 
1 1 1 1 1 1 1 1 1 
1 1 1 1 1 1 1 1 1 
1 1 1 1 1 1 1 1 1 
1 1 1 1 1 1 1 1 1 
1 1 1 1 1 1 1 1 1 
1 1 1 1 1 1 1 1 1 
1 1 1 1 1 1 1 1 1 
1 1 1 1 1 1 1 1 1 
1 1 1 1 1 1 1 1 1 
1 1 1 1 1 1 1 1 1 
1 1 1 1 1 1 1 1 1 
1 1 1 1 1 1 1 1 1 
1 1 1 1 1 1 1 1 1 
1 1 1 1 1 1 1 1 1 
1 1 1 1 1 1 1 1 1 
1 1 1 1 1 1 1 1 1 
1 1 1 1 1 1 1 1 1 
1 1 1 1 1 1 1 1 1 
1 1 1 1 1 1 1 1 1 
1 1 1 1 1 1 1 1 1 
1 1 1 1 1 1 1 1 1 
1 1 1 1 1 1 1 1 1 
1 1 1 1 1 1 1 1 1 
1 1 1 1 1 1 1 1 1 
1 1 1 1 1 1 1 1 1 
1 1 1 1 1 1 1 1 1 
1 1 1 1 1 1 1 1 1 
1 1 1 1 1 1 1 1 1 
1 1 1 1 1 1 1 1 1 
1 1 1 1 1 1 1 1 1 
1 1 1 1 1 1 1 1 1 
1 1 1 1 1 1 1 1 1 
1 1 1 1 1 1 1 1 1 
1 1 1 1 1 1 1 1 1 
1 1 1 1 1 1 1 1 1 
1 1 1 1 1 1 1 1 1 
1 1 1 1 1 1 1 1 1 
1 1 1 1 1 1 1 1 1 
1 1 1 1 1 1 1 1 1 
1 1 1 1 1 1 1 1 1 
1 1 1 1 1 1 1 1 1 
1 1 1 1 1 1 1 1 1 
1 1 1 1 1 1 1 1 1 
1 1 1 1 1 1 1 1 1 
1 1 1 1 1 1 1 1 1 
1 1 1 1 1 1 1 1 1 
1 1 1 1 1 1 1 1 1 
1 1 1 1 1 1 1 1 1 
1 1 1 1 1 1 1 1 1 
1 1 1 1 1 1 1 1 1 
1 1 1 1 1 1 1 1 1 
1 1 1 1 1 1 1 1 1 
1 1 1 1 1 1 1 1 1 
1 1 1 1 1 1 1 1 1 
1 1 1 1 1 1 1 1 1 
1 1 1 1 1 1 1 1 1 
1 1 1 1 1 1 1 1 1 
1 1 1 1 1 1 1 1 1 
1 1 1 1 1 1 1 1 1 
1 1 1 1 1 1 1 1 1 
1 1 1 1 1 1 1 1 1 
1 1 1 1 1 1 1 1 1 
1 1 1 1 1 1 1 1 1 
1 1 1 1 1 1 1 1 1 
1 1 1 1 1 1 1 1 1 
1 1 1 1 1 1 1 1 1 
1 1 1 1 1 
NORMALS normals float
-0.0312195 -0.0312195 -0.999025 -0.0220917 -0.706934 -0.706934 -0.706934 -0.0220917 -0.706934 
0.0312348 0 -0.999512 0.0322246 -0.998961 -0.0322246 0.999512 0 -0.0312348 
0 0.0312348 -0.999512 -0.69562 0.0224394 -0.718059 0.69562 0.718059 -0.0224394 
0.718059 0.69562 -0.0224394 0 0.999512 -0.0312348 -0.0312195 -0.0312195 -0.999025 
-0.0312195 -0.999025 -0.0312195 -0.706934 -0.0220917 -0.706934 0.0312348 0 -0.999512 
0.0322246 -0.998961 -0.0322246 0.999512 0 -0.0312348 0 0.0312348 -0.999512 
-0.69562 0.0224394 -0.718059 0.69562 0.718059 -0.0224394 0.718059 0.69562 -0.0224394 
0 0.999512 -0.0312348 0 -0.0312348 -0.999512 0 -0.707107 -0.707107 
-0.69562 -0.0224394 -0.718059 0.565133 -0.583363 -0.583363 -0.0312348 0 -0.999512 
-0.707107 0 -0.707107 0.57735 -0.57735 -0.57735 0.0220917 -0.706934 -0.706934 
0.57735 -0.57735 -0.57735 -0.707107 0 -0.707107 -0.707107 0 -0.707107 
0.589568 -0.571144 -0.571144 1 0 0 -0.706934 0.0220917 -0.706934 
-0.706934 0.0220917 -0.706934 0.583363 0.583363 -0.565133 0.589568 0.571144 -0.571144 
-0.0220917 0.706934 -0.706934 0.0224394 0.718059 -0.69562 0 -0.0312348 -0.999512 
0 -0.707107 -0.707107 -0.69562 -0.0224394 -0.718059 0.69562 -0.718059 -0.0224394 
-0.707107 0 -0.707107 -0.707107 0 -0.707107 0.695795 -0.71824 0 
0.0322413 -0.99948 0 1 0 0 -0.706934 0.0220917 -0.706934 
-0.706934 0.0220917 -0.706934 0.583363 0.583363 -0.565133 0.589568 0.571144 -0.571144 
-0.0220917 0.706934 -0.706934 0.0224394 0.718059 -0.69562 0 -0.0322413 -0.99948 
0 -1 0 -0.695795 -0.71824 0 0.695795 -0.71824 0 
-0.0312195 -0.0312195 -0.999025 -0.706934 -0.706934 -0.0220917 -0.999025 -0.0312195 -0.0312195 
0 0 -1 0.69562 -0.718059 -0.0224394 0 -0.0312348 -0.999512 
0.0322246 -0.0322246 -0.998961 0.0312348 -0.999512 0 0.999512 -0.0312348 0 
-0.0312348 0 -0.999512 -0.999512 0 -0.0312348 0 0 -1 
0 0 -1 0.0322413 0 -0.99948 0.0322413 -0.99948 0 
0 -0.71824 -0.695795 0 -1 0 0 -1 0 
0.695795 -0.71824 0 -0.0312348 0 -0.999512 -0.999512 0 -0.0312348 
0 0 -1 0 0 -1 0 0 -1 
0 -0.999512 -0.0312348 -0.69562 -0.0224394 -0.718059 0.565133 -0.583363 -0.583363 
0.69562 -0.718059 -0.0224394 0.0312195 -0.0312195 -0.999025 0.0312195 -0.999025 -0.0312195 
0.999025 -0.0312195 -0.0312195 -0.0312348 0 -0.999512 -0.999512 0 -0.0312348 
0 0 -1 0 0 -1 0 0 -1 
-0.695795 0 -0.71824 0.583363 -0.565133 -0.583363 0.999512 0 -0.0312348 
-0.0312348 0 -0.999512 -0.999512 0 -0.0312348 0 0 -1 
0 0 -1 0 0 -1 -0.695795 0 -0.71824 
1 0 0 -0.0312348 0 -0.999512 -0.999512 0 -0.0312348 
0 0 -1 0 0 -1 0 0 -1 
-0.695795 0 -0.71824 0.583363 0.565133 -0.583363 0.999512 0 -0.0312348 
-0.0312348 0 -0.999512 -0.999512 0 -0.0312348 0 0 -1 
0 0 -1 0 0 -1 0 0 -1 
0 0.695795 -0.71824 0 0.695795 -0.71824 0.0312348 0 -0.999512 
0.999512 0 -0.0312348 -0.0312348 0 -0.999512 -0.999512 0 -0.0312348 
0 0 -1 0 0 -1 0 0 -1 
0 0 -1 0 0 -1 0 0 -1 
0.0312348 0 -0.999512 0.999512 0 -0.0312348 -0.0312348 0 -0.999512 
-0.999512 0 -0.0312348 0 0 -1 0 0 -1 
0 0 -1 0 0 -1 0 0 -1 
0 0 -1 0.0224394 -0.69562 -0.718059 0.999512 0 -0.0312348 
-0.0312348 0 -0.999512 -0.999512 0 -0.0312348 0 0 -1 
0 0 -1 0 0 -1 0 0 -1 
0 0 -1 -0.695795 0 -0.71824 0.71824 -0.695795 0 
-0.0312348 0 -0.999512 -0.999512 0 -0.0312348 0 0 -1 
0 0 -1 0 0 -1 0 0 -1 
0 0 -1 -0.695795 0 -0.71824 0.695795 -0.71824 0 
0.0312348 -0.999512 0 0.999512 -0.0312348 0 -0.0312348 0 -0.999512 
-0.999512 0 -0.0312348 0 0 -1 0 0 -1 
0 0 -1 0 0 -1 0 0 -1 
-0.695795 0 -0.71824 0.583363 0.565133 -0.583363 0.999512 0 -0.0312348 
-0.0312348 0 -0.999512 -0.999512 0 -0.0312348 0 0 -1 
0 0 -1 0 0 -1 0 0 -1 
0 0 -1 0 0 -1 0 0.695795 -0.71824 
0 0.695795 -0.71824 0.0312348 0 -0.999512 0.999512 0 -0.0312348 
-0.0312348 0 -0.999512 -0.999512 0 -0.0312348 0 0 -1 
0 0 -1 0 0 -1 0 0 -1 
0 0 -1 0 0 -1 0 0 -1 
0 0 -1 0.0312348 0 -0.999512 0.718059 -0.69562 -0.0224394 
-0.0312348 0 -0.999512 -0.999512 0 -0.0312348 0 0 -1 
0 0 -1 0 0 -1 0 0 -1 
0 0 -1 0 0 -1 0 0 -1 
0 0 -1 0 0 -1 0.69562 -0.718059 -0.0224394 
0 -0.0312348 -0.999512 0.0312348 0 -0.999512 0.0322246 -0.998961 -0.0322246 
0.999512 0 -0.0312348 -0.0312195 0.0312195 -0.999025 -0.999025 0.0312195 -0.0312195 
0 0.0312348 -0.999512 0 0.0312348 -0.999512 0 0.0312348 -0.999512 
0 0.0312348 -0.999512 0 0.0312348 -0.999512 0 0.0312348 -0.999512 
0 0.0312348 -0.999512 0 0.0312348 -0.999512 0 0.0312348 -0.999512 
0.0312195 0.0312195 -0.999025 0.706934 0.706934 -0.0220917 0.718059 0.69562 -0.0224394 
-0.0312195 0.999025 -0.0312195 0 0.999512 -0.0312348 0 0.999512 -0.0312348 
0 0.999512 -0.0312348 0 0.999512 -0.0312348 0 0.999512 -0.0312348 
0 0.999512 -0.0312348 0 0.999512 -0.0312348 0 0.999512 -0.0312348 
0 0.999512 -0.0312348 0.0312195 0.999025 -0.0312195 0 -0.71824 0.695795 
-0.0312195 -0.999025 0.0312195 -0.999025 -0.0312195 0.0312195 0 -0.707107 0.707107 
0.0312195 -0.999025 0.0312195 0.718059 -0.0224394 0.69562 0.706934 -0.0220917 0.706934 
-0.999512 0 0.0312348 0.589568 -0.571144 0.571144 0.583363 -0.565133 0.583363 
0 -0.71824 0.695795 -1 0 0 0.565133 -0.583363 0.583363 
0 -0.999512 0.0312348 0 -0.707107 0.707107 0 -1 0 
0.0312348 -0.999512 0 0.999512 -0.0312348 0 -1 0 0 
1 0 0 -1 0 0 1 0 0 
-1 0 0 1 0 0 -1 0 0 
1 0 0 -1 0 0 1 0 0 
-1 0 0 1 0 0 -1 0 0 
0.71824 -0.695795 0 -1 0 0 0.695795 -0.71824 0 
0.0312348 -0.999512 0 0.999512 -0.0312348 0 -1 0 0 
1 0 0 -1 0 0 1 0 0 
-1 0 0 0.71824 -0.695795 0 -1 0 0 
0.695795 -0.71824 0 0.0322413 -0.99948 0 1 0 0 
-0.999512 0.0312348 0 0.707107 0.707107 0 0.71824 0.695795 0 
-0.0224394 0.718059 -0.69562 0 0.71824 -0.695795 0 0.71824 -0.695795 
0 0.71824 -0.695795 0 0.71824 -0.695795 0 0.71824 -0.695795 
0 0.71824 -0.695795 0 0.71824 -0.695795 0 0.71824 -0.695795 
0 0.71824 -0.695795 0.0312348 0.999512 0 -0.0312195 -0.0312195 0.999025 
0 -0.0312348 0.999512 0.0312195 -0.0312195 0.999025 -0.0224394 -0.69562 0.718059 
0 -0.695795 0.71824 0.0312348 0 0.999512 -0.0224394 -0.718059 0.69562 
-0.999512 -0.0312348 0 0.0220917 -0.706934 0.706934 0.695795 0 0.71824 
0.706934 -0.0220917 0.706934 0 -0.0312348 0.999512 0 -0.0312348 0.999512 
-0.565133 -0.583363 0.583363 -0.583363 -0.583363 0.565133 -0.0312348 -0.999512 0 
0.0312195 -0.999025 0.0312195 0.999025 -0.0312195 0.0312195 -1 0 0 
0.571144 -0.571144 0.589568 0.583363 -0.565133 0.583363 0 -0.695795 0.71824 
-0.571144 -0.571144 0.589568 -0.57735 -0.57735 0.57735 -0.57735 -0.57735 0.57735 
0.999512 0 0.0312348 -1 0 0 0.571144 -0.589568 0.571144 
0 -0.71824 0.695795 -0.571144 -0.589568 0.571144 0.999512 0 0.0312348 
-0.71824 0 -0.695795 0.999512 0 0.0312348 -0.71824 0 -0.695795 
0.999512 0 0.0312348 -0.71824 0 -0.695795 0.999512 0 0.0312348 
-0.71824 0 -0.695795 0.999512 0 0.0312348 -0.71824 0 -0.695795 
0.71824 -0.695795 0 -0.71824 0 -0.695795 0.695795 -0.71824 0 
0.0312195 -0.999025 0.0312195 0.999025 -0.0312195 0.0312195 -0.71824 0 -0.695795 
0.999512 0 0.0312348 -0.71824 0 -0.695795 0.999512 0 0.0312348 
-0.71824 0 -0.695795 0.71824 -0.695795 0 -1 0 0 
0.695795 -0.71824 0 0.0322246 -0.998961 0.0322246 0.999512 0 0.0312348 
-1 0 0 0.706934 0.706934 0.0220917 0.718059 0.69562 0.0224394 
-0.0224394 0.69562 -0.718059 -0.999512 0 -0.0312348 0 0.695795 -0.71824 
0 0.695795 -0.71824 0 0.695795 -0.71824 0 0.695795 -0.71824 
0 0.695795 -0.71824 0 0.695795 -0.71824 0 0.695795 -0.71824 
0 0.695795 -0.71824 0.0220917 0.706934 -0.706934 0.706934 0.706934 -0.0220917 
0.706934 0.706934 0.0220917 -0.0312195 0.0312195 -0.999025 -0.999025 0.0312195 -0.0312195 
0 0.0312348 -0.999512 0 0.0312348 -0.999512 0 0.0312348 -0.999512 
0 0.0312348 -0.999512 0 0.0312348 -0.999512 0 0.0312348 -0.999512 
0 0.0312348 -0.999512 0.0312195 0.0312195 -0.999025 0.706934 0.706934 -0.0220917 
0.706934 0.706934 -0.0220917 -0.0312195 0.999025 -0.0312195 0 0.999512 -0.0312348 
0 0.999512 -0.0312348 0 0.999512 -0.0312348 0 0.999512 -0.0312348 
0 0.999512 -0.0312348 0 0.999512 -0.0312348 0 0.999512 -0.0312348 
0.0312195 0.999025 -0.0312195 0 -0.999512 0.0312348 -0.998961 -0.0322246 0.0322246 
0.706934 -0.0220917 0.706934 0.69562 -0.0224394 0.718059 0 -0.999512 0.0312348 
-0.998961 -0.0322246 0.0322246 0.706934 -0.0220917 0.706934 0.69562 -0.0224394 0.718059 
-0.99948 0 0.0322413 0.583363 -0.565133 0.583363 0.571144 -0.571144 0.589568 
-0.57735 -0.57735 0.57735 -0.571144 -0.571144 0.589568 0.707107 0 0.707107 
0.695795 0 0.71824 -0.718059 -0.69562 0.0224394 0.565133 -0.583363 0.583363 
0 -0.999512 0.0312348 0 -0.999512 0.0312348 0 -0.999512 0.0312348 
-0.565133 -0.583363 0.583363 0.707107 0 0.707107 0.707107 0 0.707107 
-0.706934 -0.0220917 -0.706934 -0.706934 -0.706934 -0.0220917 -0.999025 -0.0312195 -0.0312195 
0.707107 0 0.707107 0.707107 0 0.707107 -0.707107 0 -0.707107 
-0.707107 0 -0.707107 0.707107 0 0.707107 0.707107 0 0.707107 
-0.707107 0 -0.707107 -0.707107 0 -0.707107 0.707107 0 0.707107 
0.707107 0 0.707107 -0.707107 0 -0.707107 -0.707107 0 -0.707107 
0.583363 -0.565133 0.583363 0.583363 -0.565133 0.583363 -0.707107 0 -0.707107 
-0.707107 0 -0.707107 0.57735 -0.57735 0.57735 0.706934 -0.706934 0.0220917 
-0.707107 0 -0.707107 -0.707107 0 -0.707107 0.706934 -0.706934 0.0220917 
0.706934 -0.0220917 0.706934 0.706934 -0.0220917 0.706934 -0.707107 0 -0.707107 
-0.707107 0 -0.707107 0.707107 0 0.707107 0.707107 0 0.707107 