# vtk DataFile Version 3.0
vtk output
ASCII
DATASET POLYDATA
POINTS 2318 float
73 82 77.0286 73 81.0286 78 72.0286 82 78 
74 82 77.0286 74 81.0286 78 74.9714 82 78 
73 83 77.0286 72.0286 83 78 73.9714 83 78 
74 82.9714 78 73 83.9714 78 83 84 77.0286 
83 83.0286 78 82.0286 84 78 84 84 77.0286 
84 83.0286 78 84.9714 84 78 83 85 77.0286 
82.0286 85 78 84 85 77.0286 84.9714 85 78 
83 86 77.0286 82.0286 86 78 84 86 77.0286 
84.9714 86 78 82 87 77.0286 82 86.0286 78 
81.0286 87 78 83 87 77.0286 83.9714 87 78 
84 86.9714 78 81 88 77.0286 81 87.0286 78 
80.0286 88 78 82 88 77.0286 82.9714 88 78 
83 87.9714 78 81 89 77.0286 80.0286 89 78 
81.9714 89 78 82 88.9714 78 81 89.9714 78 
73 81 78.0286 73 80.0286 79 72.0286 81 79 
73.9714 81 79 72.0286 82 79 74 81.0286 79 
74.9714 82 79 78 82 78.0286 78 81.0286 79 
77.0286 82 79 78.9714 82 79 72.0286 83 79 
74 83 78.0286 74.9714 83 79 78 83 78.0286 
77.0286 83 79 79 82.0286 79 79 83 78.0286 
80 83 78.0286 80 82.0286 79 81 83 78.0286 
81 82.0286 79 82 83 78.0286 82 82.0286 79 
83 83 78.0286 83 82.0286 79 84 83 78.0286 
84 82.0286 79 84.9714 83 79 73 83.9714 79 
74 83.9714 79 78 83.9714 79 79 83.9714 79 
80 83.9714 79 81 83.9714 79 81.0286 84 79 
82 84 78.0286 84.9714 84 79 82 85 78.0286 
81.0286 85 79 84.9714 85 79 82 86 78.0286 
81.0286 86 79 84.9714 86 79 79 87 78.0286 
79 86.0286 79 78.0286 87 79 80 87 78.0286 
80 86.0286 79 81 87 78.0286 81 86.0286 79 
84 87 78.0286 84.9714 87 79 79 87.9714 79 
79.0286 88 79 80 88 78.0286 82.9714 88 79 
83 87.9714 79 84 87.9714 79 80 88.9714 79 
80.0286 89 79 81.9714 89 79 82 88.9714 79 
81 89.9714 79 73 80 79.0286 73 79.0286 80 
72.0286 80 80 74 80 79.0286 74 79.0286 80 
74.9714 80 80 72.0286 81 80 74 81 79.0286 
74.9714 81 80 72.0286 82 80 75 82 79.0286 
75 81.0286 80 76 82 79.0286 76 81.0286 80 
77 82 79.0286 77 81.0286 80 78 81.0286 80 
79 82 79.0286 79 81.0286 80 80 82 79.0286 
80 81.0286 80 81 82 79.0286 81 81.0286 80 
82 82 79.0286 82 81.0286 80 83 82 79.0286 
83 81.0286 80 84 82 79.0286 84 81.0286 80 
84.9714 82 80 72.0286 83 80 75 83 79.0286 
76 83 79.0286 77 83 79.0286 84.9714 83 80 
73 83.9714 80 74 83.9714 80 75 84 79.0286 
74.0286 84 80 76 84 79.0286 77 84 79.0286 
78 84 79.0286 79 84 79.0286 80 84 79.0286 
81 84 79.0286 85 83.0286 80 85 84 79.0286 
86 84 79.0286 86 83.0286 80 86.9714 84 80 
75 85 79.0286 74.0286 85 80 76 85 79.0286 
77 85 79.0286 78 85 79.0286 79 85 79.0286 
80 85 79.0286 81 85 79.0286 85 85 79.0286 
86 85 79.0286 86.9714 85 80 75 85.9714 80 
76 85.9714 80 77 85.9714 80 78 85.9714 80 
78.0286 86 80 79 86 79.0286 80 86 79.0286 
81 86 79.0286 85 86 79.0286 86 86 79.0286 
86.9714 86 80 78.0286 87 80 85 87 79.0286 
85.9714 87 80 86 86.9714 80 79 88 79.0286 
78.0286 88 80 83 88 79.0286 84 88 79.0286 
84.9714 88 80 85 87.9714 80 79 89 79.0286 
78.0286 89 80 80 89 79.0286 82 89 79.0286 
83 89 79.0286 83.9714 89 80 84 88.9714 80 
79 89.9714 80 80 89.9714 80 81 89.9714 80 
82 89.9714 80 83 89.9714 80 73 79.0286 81 
72.0286 80 81 74 79.0286 81 74.9714 80 81 
72.0286 81 81 75 80.0286 81 75 81 80.0286 
76 81 80.0286 76 80.0286 81 77 81 80.0286 
77 80.0286 81 78 81 80.0286 78 80.0286 81 
78.9714 81 81 72.0286 82 81 79 81.0286 81 
80 81.0286 81 81 81.0286 81 82 81.0286 81 
83 81.0286 81 84 81.0286 81 84.9714 82 81 
73 82.9714 81 73 83 80.9714 73.0286 83 81 
85 82.0286 81 85 83 80.0286 85.9714 83 81 
74 83.9714 81 74.0286 84 81 86 83.0286 81 
86.9714 84 81 74.0286 85 81 86.9714 85 81 
75 85.9714 81 76 85.9714 81 77 85.9714 81 
78 85.9714 81 78.0286 86 81 86.9714 86 81 
78.0286 87 81 85.9714 87 81 86 86.9714 81 
78.0286 88 81 84.9714 88 81 85 87.9714 81 
78.0286 89 81 83.9714 89 81 84 88.9714 81 
79 89.9714 81 80 89.9714 81 81 89.9714 81 
82 89.9714 81 83 89.9714 81 73 80 81.9714 
74 80 81.9714 75 80 81.0286 75 79.0286 82 
74.0286 80 82 76 80 81.0286 76 79.0286 82 
77 80 81.0286 77 79.0286 82 78 80 81.0286 
78 79.0286 82 78.9714 80 82 73 81 81.9714 
74 81 81.9714 74.0286 81 82 78.9714 81 82 
73 82 81.9714 74 82 81.9714 74.0286 82 82 
79 81.0286 82 80 81.0286 82 81 81.0286 82 
82 81.0286 82 83 81.0286 82 84 81.0286 82 
84.9714 82 82 74 83 81.9714 74.0286 83 82 
85 83 81.9714 84.9714 83 82 74.0286 84 82 
85 83.0286 82 86 83.0286 82 86.9714 84 82 
74.0286 85 82 86.9714 85 82 75 85.9714 82 
76 85.9714 82 77 85.9714 82 78 85.9714 82 
78.0286 86 82 86.9714 86 82 78.0286 87 82 
86 87 81.0286 86.9714 87 82 78.0286 88 82 
85 88 81.0286 86 88 81.0286 86.9714 88 82 
78.0286 89 82 84 89 81.0286 85 89 81.0286 
85.9714 89 82 86 88.9714 82 79 89.9714 82 
80 89.9714 82 81 89.9714 82 82 89.9714 82 
83 89.9714 82 84 89.9714 82 85 89.9714 82 
75 79.0286 83 74.0286 80 83 76 79.0286 83 
77 79.0286 83 78 80 82.9714 77.9714 80 83 
74.0286 81 83 78 80.0286 83 78.9714 81 83 
74.0286 82 83 79 81.0286 83 80 81.0286 83 
81 81.0286 83 82 81.0286 83 83 81.0286 83 
84 81.0286 83 84.9714 82 83 74.0286 83 83 
84.9714 83 83 74.0286 84 83 85 83.0286 83 
86 83.0286 83 86.9714 84 83 75 84.9714 83 
75 85 82.9714 75.0286 85 83 86.9714 85 83 
76 85.9714 83 77 85.9714 83 78 86 82.0286 
77.0286 86 83 86.9714 86 83 78 87 82.0286 
77.0286 87 83 86.9714 87 83 78 88 82.0286 
77.0286 88 83 86.9714 88 83 78 88.9714 83 
78.0286 89 83 85.9714 89 83 86 88.9714 83 
79 89.9714 83 80 89.9714 83 81 89.9714 83 
82 89.9714 83 83 89.9714 83 84 89.9714 83 
85 89.9714 83 75 80 83.9714 76 80 83.9714 
77 80 83.9714 75 81 83.9714 76 81 83.9714 
77 81 83.9714 78 81 83.9714 75 82 83.9714 
76 82 83.9714 76.0286 82 84 77 81.0286 84 
78 81.0286 84 79 81.0286 84 80 81.0286 84 
81 81.0286 84 82 81.0286 84 83 81.0286 84 
84 81.0286 84 84.9714 82 84 75 83 83.9714 
76 83 83.9714 76.0286 83 84 84.9714 83 84 
75 84 83.9714 76 84 83.9714 76.0286 84 84 
85 83.0286 84 86 83.0286 84 86.9714 84 84 
76 85 83.9714 76.0286 85 84 86.9714 85 84 
76.0286 86 84 77 86 83.0286 86.9714 86 84 
77 87 83.0286 76.0286 87 84 86.9714 87 84 
77 87.9714 84 78 87.9714 84 78 88 83.9714 
78.0286 88 84 86.9714 88 84 78.0286 89 84 
85.9714 89 84 86 88.9714 84 79 89.9714 84 
80 89.9714 84 81 89.9714 84 82 89.9714 84 
83 89.9714 84 84 89.9714 84 85 89.9714 84 
77 81.0286 85 76.0286 82 85 78 81.0286 85 
79 81.0286 85 80 81.0286 85 81 81.0286 85 
82 81.0286 85 83 81.0286 85 84 81.0286 85 
84.9714 82 85 76.0286 83 85 85 82.0286 85 
85 83 84.0286 85.9714 83 85 76.0286 84 85 
86 83.0286 85 86.9714 84 85 76.0286 85 85 
86.9714 85 85 76.0286 86 85 86.9714 86 85 
76.0286 87 85 86 87 84.9714 85.9714 87 85 
86 86.9714 85 77 87.9714 85 78 87.9714 85 
78.0286 88 85 86 88 84.9714 85.9714 88 85 
79 88.9714 85 79 89 84.9714 80 88.9714 85 
80 89 84.9714 81 88.9714 85 81 89 84.9714 
82 88.9714 85 82 89 84.9714 82.0286 89 85 
84 89 84.9714 83.9714 89 85 84 88.9714 85 
85 88.9714 85 85 89 84.9714 83 89.9714 85 
87 80 85.0286 87 79.0286 86 86.0286 80 86 
88 80 85.0286 88 79.0286 86 88.9714 80 86 
86 81 85.0286 86 80.0286 86 85.0286 81 86 
87 81 85.0286 87.9714 81 86 88 80.9714 86 
77 81.0286 86 76.0286 82 86 78 81.0286 86 
79 81.0286 86 80 81.0286 86 81 81.0286 86 
82 81.0286 86 83 81.0286 86 84 81.0286 86 
85 82 85.0286 85 81.0286 86 86 82 85.0286 
86.9714 82 86 87 81.9714 86 76.0286 83 86 
86 83 85.0286 86.9714 83 86 76.0286 84 86 
86.9714 84 86 76.0286 85 86 86.9714 85 86 
76.0286 86 86 86.9714 86 86 76.0286 87 86 
85.9714 87 86 86 86.9714 86 77 87.9714 86 
78 87.9714 86 79 87.9714 86 79 88 85.9714 
80 87.9714 86 80 88 85.9714 81 87.9714 86 
81 88 85.9714 82 87.9714 86 82 88 85.9714 
82.0286 88 86 85 88 85.9714 84.9714 88 86 
85 87.9714 86 82.0286 89 86 83.9714 89 86 
84 88.9714 86 83 89.9714 86 86 80 86.0286 
86 79.0286 87 85.0286 80 87 87 79.0286 87 
88 79.0286 87 88.9714 80 87 78 81 86.0286 
78 80.0286 87 77.0286 81 87 79 81 86.0286 
79 80.0286 87 80 81 86.0286 80 80.0286 87 
81 81 86.0286 81 80.0286 87 82 81 86.0286 
82 80.0286 87 83 81 86.0286 83 80.0286 87 
84 81 86.0286 84 80.0286 87 85 81 86.0286 
85 80.0286 87 87.9714 81 87 88 80.9714 87 
77 81.0286 87 76.0286 82 87 86.9714 82 87 
87 81.9714 87 76.0286 83 87 86.9714 83 87 
76.0286 84 87 86.9714 84 87 76.0286 85 87 
86.9714 85 87 76.0286 86 87 86.9714 86 87 
77 86.9714 87 77 87 86.9714 78 86.9714 87 
78 87 86.9714 79 86.9714 87 79 87 86.9714 
80 86.9714 87 80 87 86.9714 80.0286 87 87 
85.9714 87 87 86 86.9714 87 81 87.9714 87 
82 87.9714 87 82.0286 88 87 84.9714 88 87 
85 87.9714 87 82.0286 89 87 83.9714 89 87 
84 88.9714 87 83 89.9714 87 79 78 87.0286 
79 77.0286 88 78.0286 78 88 80 78 87.0286 
80 77.0286 88 80.9714 78 88 79 79 87.0286 
78.0286 79 88 80 79 87.0286 80.9714 79 88 
79 80 87.0286 78.0286 80 88 80 80 87.0286 
81 79.0286 88 81 80 87.0286 82 80 87.0286 
82 79.0286 88 83 80 87.0286 83 79.0286 88 
84 80 87.0286 84 79.0286 88 85 80 87.0286 
85 79.0286 88 86 79.0286 88 87 79.0286 88 
88 79.0286 88 88.9714 80 88 78 81 87.9714 
78.0286 81 88 88 81 87.0286 88.9714 81 88 
77 82 87.9714 78 82 87.9714 78.0286 82 88 
87 82 87.0286 88 82 87.0286 88.9714 82 88 
77 83 87.9714 78 83 87.9714 78.0286 83 88 
87 83 87.0286 88 83 87.0286 88.9714 83 88 
77 84 87.9714 78 84 87.9714 78.0286 84 88 
87 84 87.0286 88 84 87.0286 88.9714 84 88 
77 85 87.9714 78 85 87.9714 78.0286 85 88 
87 85 87.0286 88 85 87.0286 88.9714 85 88 
77 86 87.9714 78 86 87.9714 79 85.9714 88 
79 86 87.9714 80 85.9714 88 80 86 87.9714 
80.0286 86 88 87 86 87.0286 88 86 87.0286 
88.9714 86 88 80.0286 87 88 86 87 87.0286 
87 87 87.0286 87.9714 87 88 88 86.9714 88 
81 87.9714 88 82 87.9714 88 82.0286 88 88 
84.9714 88 88 85 87.9714 88 86 87.9714 88 
87 87.9714 88 82.0286 89 88 83.9714 89 88 
84 88.9714 88 83 89.9714 88 79 77.0286 89 
78.0286 78 89 80 77.0286 89 80.9714 78 89 
78.0286 79 89 81 78.0286 89 81 79 88.0286 
82 79 88.0286 82 78.0286 89 83 79 88.0286 
83 78.0286 89 84 79 88.0286 84 78.0286 89 
85 79 88.0286 85 78.0286 89 86 79 88.0286 
86 78.0286 89 87 79 88.0286 87 78.0286 89 
87.9714 79 89 78.0286 80 89 88 79.0286 89 
88.9714 80 89 78.0286 81 89 88.9714 81 89 
78.0286 82 89 88.9714 82 89 78.0286 83 89 
88.9714 83 89 78.0286 84 89 88.9714 84 89 
79 84.9714 89 79 85 88.9714 79.0286 85 89 
[...]
POINT_DATA 2318
SCALARS scalars float
LOOKUP_TABLE default
1 1 1 1 1 1 1 1 1 
1 1 1 1 1 1 1 1 1 
1 1 1 1 1 1 1 1 1 
1 1 1 1 1 1 1 1 1 
1 1 1 1 1 1 1 1 1 
1 1 1 1 1 1 1 1 1 
1 1 1 1 1 1 1 1 1 
1 1 1 1 1 1 1 1 1 
1 1 1 1 1 1 1 1 1 
1 1 1 1 1 1 1 1 1 
1 1 1 1 1 1 1 1 1 
1 1 1 1 1 1 1 1 1 
1 1 1 1 1 1 1 1 1 
1 1 1 1 1 1 1 1 1 
1 1 1 1 1 1 1 1 1 
1 1 1 1 1 1 1 1 1 
1 1 1 1 1 1 1 1 1 
1 1 1 1 1 1 1 1 1 
1 1 1 1 1 1 1 1 1 
1 1 1 1 1 1 1 1 1 
1 1 1 1 1 1 1 1 1 
1 1 1 1 1 1 1 1 1 
1 1 1 1 1 1 1 1 1 
1 1 1 1 1 1 1 1 1 
1 1 1 1 1 1 1 1 1 
1 1 1 1 1 1 1 1 1 
1 1 1 1 1 1 1 1 1 
1 1 1 1 1 1 1 1 1 
1 1 1 1 1 1 1 1 1 
1 1 1 1 1 1 1 1 1 
1 1 1 1 1 1 1 1 1 
1 1 1 1 1 1 1 1 1 
1 1 1 1 1 1 1 1 1 
1 1 1 1 1 1 1 1 1 
1 1 1 1 1 1 1 1 1 
1 1 1 1 1 1 1 1 1 
1 1 1 1 1 1 1 1 1 
1 1 1 1 1 1 1 1 1 
1 1 1 1 1 1 1 1 1 
1 1 1 1 1 1 1 1 1 
1 1 1 1 1 1 1 1 1 
1 1 1 1 1 1 1 1 1 
1 1 1 1 1 1 1 1 1 
1 1 1 1 1 1 1 1 1 
1 1 1 1 1 1 1 1 1 
1 1 1 1 1 1 1 1 1 
1 1 1 1 1 1 1 1 1 
1 1 1 1 1 1 1 1 1 
1 1 1 1 1 1 1 1 1 
1 1 1 1 1 1 1 1 1 
1 1 1 1 1 1 1 1 1 
1 1 1 1 1 1 1 1 1 
1 1 1 1 1 1 1 1 1 
1 1 1 1 1 1 1 1 1 
1 1 1 1 1 1 1 1 1 
1 1 1 1 1 1 1 1 1 
1 1 1 1 1 1 1 1 1 
1 1 1 1 1 1 1 1 1 
1 1 1 1 1 1 1 1 1 
1 1 1 1 1 1 1 1 1 
1 1 1 1 1 1 1 1 1 
1 1 1 1 1 1 1 1 1 
1 1 1 1 1 1 1 1 1 
1 1 1 1 1 1 1 1 1 
1 1 1 1 1 1 1 1 1 
1 1 1 1 1 1 1 1 1 
1 1 1 1 1 1 1 1 1 
1 1 1 1 1 1 1 1 1 
1 1 1 1 1 1 1 1 1 
1 1 1 1 1 1 1 1 1 
1 1 1 1 1 1 1 1 1 
1 1 1 1 1 1 1 1 1 
1 1 1 1 1 1 1 1 1 
1 1 1 1 1 1 1 1 1 
1 1 1 1 1 1 1 1 1 
1 1 1 1 1 1 1 1 1 
1 1 1 1 1 1 1 1 1 
1 1 1 1 1 1 1 1 1 
1 1 1 1 1 1 1 1 1 
1 1 1 1 1 1 1 1 1 
1 1 1 1 1 1 1 1 1 
1 1 1 1 1 1 1 1 1 
1 1 1 1 1 1 1 1 1 
1 1 1 1 1 1 1 1 1 
1 1 1 1 1 1 1 1 1 
1 1 1 1 1 1 1 1 1 
1 1 1 1 1 1 1 1 1 
1 1 1 1 1 1 1 1 1 
1 1 1 1 1 1 1 1 1 
1 1 1 1 1 1 1 1 1 
1 1 1 1 1 1 1 1 1 
1 1 1 1 1 1 1 1 1 
1 1 1 1 1 1 1 1 1 
1 1 1 1 1 1 1 1 1 
1 1 1 1 1 1 1 1 1 
1 1 1 1 1 1 1 1 1 
1 1 1 1 1 1 1 1 1 
1 1 1 1 1 1 1 1 1 
1 1 1 1 1 1 1 1 1 
1 1 1 1 1 1 1 1 1 
1 1 1 1 1 1 1 1 1 
1 1 1 1 1 1 1 1 1 
1 1 1 1 1 1 1 1 1 
1 1 1 1 1 1 1 1 1 
1 1 1 1 1 1 1 1 1 
1 1 1 1 1 1 1 1 1 
1 1 1 1 1 1 1 1 1 
1 1 1 1 1 1 1 1 1 
1 1 1 1 1 1 1 1 1 
1 1 1 1 1 1 1 1 1 
1 1 1 1 1 1 1 1 1 
1 1 1 1 1 1 1 1 1 
1 1 1 1 1 1 1 1 1 
1 1 1 1 1 1 1 1 1 
1 1 1 1 1 1 1 1 1 
1 1 1 1 1 1 1 1 1 
1 1 1 1 1 1 1 1 1 
1 1 1 1 1 1 1 1 1 
1 1 1 1 1 1 1 1 1 
1 1 1 1 1 1 1 1 1 
1 1 1 1 1 1 1 1 1 
1 1 1 1 1 1 1 1 1 
1 1 1 1 1 1 1 1 1 
1 1 1 1 1 1 1 1 1 
1 1 1 1 1 1 1 1 1 
1 1 1 1 1 1 1 1 1 
1 1 1 1 1 1 1 1 1 
1 1 1 1 1 1 1 1 1 
1 1 1 1 1 1 1 1 1 
1 1 1 1 1 1 1 1 1 
1 1 1 1 1 1 1 1 1 
1 1 1 1 1 1 1 1 1 
1 1 1 1 1 1 1 1 1 
1 1 1 1 1 1 1 1 1 
1 1 1 1 1 1 1 1 1 
1 1 1 1 1 1 1 1 1 
1 1 1 1 1 1 1 1 1 
1 1 1 1 1 1 1 1 1 
1 1 1 1 1 1 1 1 1 
1 1 1 1 1 1 1 1 1 
1 1 1 1 1 1 1 1 1 
1 1 1 1 1 1 1 1 1 
1 1 1 1 1 1 1 1 1 
1 1 1 1 1 1 1 1 1 
1 1 1 1 1 1 1 1 1 
1 1 1 1 1 1 1 1 1 
1 1 1 1 1 1 1 1 1 
1 1 1 1 1 1 1 1 1 
1 1 1 1 1 1 1 1 1 
1 1 1 1 1 1 1 1 1 
1 1 1 1 1 1 1 1 1 
1 1 1 1 1 1 1 1 1 
1 1 1 1 1 1 1 1 1 
1 1 1 1 1 1 1 1 1 
1 1 1 1 1 1 1 1 1 
1 1 1 1 1 1 1 1 1 
1 1 1 1 1 1 1 1 1 
1 1 1 1 1 1 1 1 1 
1 1 1 1 1 1 1 1 1 
1 1 1 1 1 1 1 1 1 
1 1 1 1 1 1 1 1 1 
1 1 1 1 1 1 1 1 1 
1 1 1 1 1 1 1 1 1 
1 1 1 1 1 1 1 1 1 
1 1 1 1 1 1 1 1 1 
1 1 1 1 1 1 1 1 1 
1 1 1 1 1 1 1 1 1 
1 1 1 1 1 1 1 1 1 
1 1 1 1 1 1 1 1 1 
1 1 1 1 1 1 1 1 1 
1 1 1 1 1 1 1 1 1 
1 1 1 1 1 1 1 1 1 
1 1 1 1 1 1 1 1 1 
1 1 1 1 1 1 1 1 1 
1 1 1 1 1 1 1 1 1 
1 1 1 1 1 1 1 1 1 
1 1 1 1 1 1 1 1 1 
1 1 1 1 1 1 1 1 1 
1 1 1 1 1 1 1 1 1 
1 1 1 1 1 1 1 1 1 
1 1 1 1 1 1 1 1 1 
1 1 1 1 1 1 1 1 1 
1 1 1 1 1 1 1 1 1 
1 1 1 1 1 1 1 1 1 
1 1 1 1 1 1 1 1 1 
1 1 1 1 1 1 1 1 1 
1 1 1 1 1 1 1 1 1 
1 1 1 1 1 1 1 1 1 
1 1 1 1 1 1 1 1 1 
1 1 1 1 1 1 1 1 1 
1 1 1 1 1 1 1 1 1 
1 1 1 1 1 1 1 1 1 
1 1 1 1 1 1 1 1 1 
1 1 1 1 1 1 1 1 1 
1 1 1 1 1 1 1 1 1 
1 1 1 1 1 1 1 1 1 
1 1 1 1 1 1 1 1 1 
1 1 1 1 1 1 1 1 1 
1 1 1 1 1 1 1 1 1 
1 1 1 1 1 1 1 1 1 
1 1 1 1 1 1 1 1 1 
1 1 1 1 1 1 1 1 1 
1 1 1 1 1 1 1 1 1 
1 1 1 1 1 1 1 1 1 
1 1 1 1 1 1 1 1 1 
1 1 1 1 1 1 1 1 1 
1 1 1 1 1 1 1 1 1 
1 1 1 1 1 1 1 1 1 
1 1 1 1 1 1 1 1 1 
1 1 1 1 1 1 1 1 1 
1 1 1 1 1 1 1 1 1 
1 1 1 1 1 1 1 1 1 
1 1 1 1 1 1 1 1 1 
1 1 1 1 1 1 1 1 1 
1 1 1 1 1 1 1 1 1 
1 1 1 1 1 1 1 1 1 
1 1 1 1 1 1 1 1 1 
1 1 1 1 1 1 1 1 1 
1 1 1 1 1 1 1 1 1 
1 1 1 1 1 1 1 1 1 
1 1 1 1 1 1 1 1 1 
1 1 1 1 1 1 1 1 1 
1 1 1 1 1 1 1 1 1 
1 1 1 1 1 1 1 1 1 
1 1 1 1 1 1 1 1 1 
1 1 1 1 1 1 1 1 1 
1 1 1 1 1 1 1 1 1 
1 1 1 1 1 1 1 1 1 
1 1 1 1 1 1 1 1 1 
1 1 1 1 1 1 1 1 1 
1 1 1 1 1 1 1 1 1 
1 1 1 1 1 1 1 1 1 
1 1 1 1 1 1 1 1 1 
1 1 1 1 1 1 1 1 1 
1 1 1 1 1 1 1 1 1 
1 1 1 1 1 1 1 1 1 
1 1 1 1 1 1 1 1 1 
1 1 1 1 1 1 1 1 1 
1 1 1 1 1 1 1 1 1 
1 1 1 1 1 1 1 1 1 
1 1 1 1 1 1 1 1 1 
1 1 1 1 1 1 1 1 1 
1 1 1 1 1 1 1 1 1 
1 1 1 1 1 1 1 1 1 
1 1 1 1 1 1 1 1 1 
1 1 1 1 1 1 1 1 1 
1 1 1 1 1 1 1 1 1 
1 1 1 1 1 1 1 1 1 
1 1 1 1 1 1 1 1 1 
1 1 1 1 1 1 1 1 1 
1 1 1 1 1 1 1 1 1 
1 1 1 1 1 1 1 1 1 
1 1 1 1 1 1 1 1 1 
1 1 1 1 1 1 1 1 1 
1 1 1 1 1 1 1 1 1 
1 1 1 1 1 1 1 1 1 
1 1 1 1 1 1 1 1 1 
1 1 1 1 1 
NORMALS normals float
-0.0285481 -0.0285481 -0.999185 -0.0201989 -0.706963 -0.706963 -0.999185 -0.0285481 -0.0285481 
0.0285598 0 -0.999592 0.0293864 -0.999136 -0.0293864 0.999592 0 -0.0285598 
0 0.0285598 -0.999592 -0.999136 0.0293864 -0.0293864 0.566195 0.582848 -0.582848 
0.582848 0.566195 -0.582848 0 0.999592 -0.0285598 -0.0285481 -0.0285481 -0.999185 
-0.0201989 -0.706963 -0.706963 -0.706963 -0.0201989 -0.706963 0.0285481 -0.0285481 -0.999185 
0.0201989 -0.706963 -0.706963 0.999185 -0.0285481 -0.0285481 -0.0285598 0 -0.999592 
-0.707107 0 -0.707107 0.0285598 0 -0.999592 0.999592 0 -0.0285598 
-0.0285598 0 -0.999592 -0.582848 -0.566195 -0.582848 0.0285481 0.0285481 -0.999185 
0.999185 0.0285481 -0.0285481 -0.0285481 -0.0285481 -0.999185 -0.57735 -0.57735 -0.57735 
-0.57735 -0.57735 -0.57735 0.0285481 0.0285481 -0.999185 0.57735 0.57735 -0.57735 
0.57735 0.57735 -0.57735 -0.0285481 -0.0285481 -0.999185 -0.57735 -0.57735 -0.57735 
-0.706963 -0.0201989 -0.706963 0.0285481 0.0285481 -0.999185 0.706963 0.706963 -0.0201989 
0.706963 0.706963 -0.0201989 0 0.0285598 -0.999592 -0.999136 0.0293864 -0.0293864 
0.696639 0.717129 -0.0204894 0.706963 0.706963 -0.0201989 0 0.999592 -0.0285598 
0 -0.707107 -0.707107 0 -0.707107 -0.707107 -0.999136 -0.0293864 -0.0293864 
0.566195 -0.582848 -0.582848 -1 0 0 0.582848 -0.582848 -0.566195 
0.717129 -0.0204894 -0.696639 0 -0.0285598 -0.999592 0 -0.999592 -0.0285598 
-0.696639 -0.0204894 -0.717129 0.566195 -0.582848 -0.582848 -0.999592 0.0285598 0 
0.57735 0.57735 -0.57735 0.706963 0.0201989 -0.706963 -0.0285481 0.0285481 -0.999185 
-0.706963 0.0201989 -0.706963 0.571691 -0.571691 -0.588506 0 0 -1 
0 0 -1 0 -0.696786 -0.717279 0 0 -1 
0 -0.696786 -0.717279 0 -0.0285598 -0.999592 0 -0.707107 -0.707107 
0 -0.707107 -0.707107 0 -0.707107 -0.707107 0.0201989 -0.706963 -0.706963 
0.0201989 -0.706963 -0.706963 0.999185 -0.0285481 -0.0285481 -0.0285598 0.999592 0 
0.0285481 0.999185 -0.0285481 -0.0201989 0.706963 -0.706963 0 0.696786 -0.717279 
0 0.696786 -0.717279 -0.571691 0.571691 -0.588506 -0.582848 0.566195 -0.582848 
-0.707107 0 -0.707107 0.717279 0 -0.696786 -0.707107 0 -0.707107 
-0.707107 0 -0.707107 0.717279 0 -0.696786 -0.582848 -0.566195 -0.582848 
-0.582848 -0.566195 -0.582848 0.717279 0 -0.696786 -0.0285598 0 -0.999592 
-0.0204894 -0.696639 -0.717129 -0.999592 0 -0.0285598 0 -0.0285598 -0.999592 
0 -0.707107 -0.707107 -0.566195 -0.582848 -0.582848 -0.566195 -0.582848 -0.582848 
0.57735 0.57735 -0.57735 0.706963 0.0201989 -0.706963 -0.582848 0.566195 -0.582848 
-0.57735 0.57735 -0.57735 -0.706963 0.0201989 -0.706963 0.582848 0.582848 -0.566195 
0.571691 0.588506 -0.571691 0.0201989 0.706963 -0.706963 -0.57735 0.57735 -0.57735 
-0.571691 0.588506 -0.571691 0.571691 0.588506 -0.571691 0.582848 0.582848 -0.566195 
0 1 0 -0.0201989 -0.706963 -0.706963 -0.0285481 -0.999185 -0.0285481 
-0.999185 -0.0285481 -0.0285481 0.0285481 -0.0285481 -0.999185 0.0285481 -0.999185 -0.0285481 
0.999185 -0.0285481 -0.0285481 -1 0 0 0.582848 -0.566195 -0.582848 
0.582848 -0.566195 -0.582848 -1 0 0 0.696639 -0.0204894 -0.717129 
0.566195 -0.582848 -0.582848 0 -0.0285598 -0.999592 0 -0.707107 -0.707107 
-0.696639 -0.0204894 -0.717129 0 -0.707107 -0.707107 0 -0.717279 -0.696786 
0.566195 -0.582848 -0.582848 0 -0.999592 -0.0285598 0 -0.707107 -0.707107 
0 -0.999592 -0.0285598 0 -0.707107 -0.707107 0 -0.999592 -0.0285598 
0 -0.707107 -0.707107 0 -0.999592 -0.0285598 0 -0.707107 -0.707107 
0 -0.999592 -0.0285598 0.0201989 -0.706963 -0.706963 0.0285481 -0.999185 -0.0285481 
0.999185 -0.0285481 -0.0285481 -0.999185 0.0285481 0.0285481 0.696786 0 -0.717279 
0 0 -1 -0.696786 0 -0.717279 0.588506 -0.571691 -0.571691 
-0.0285481 0.999185 0.0285481 -0.696786 0.717279 0 -0.0285598 0 -0.999592 
-0.717129 0.696639 -0.0204894 0 0 -1 0 0 -1 
0 0.696786 -0.717279 0 0.696786 -0.717279 0 0.696786 -0.717279 
-0.571691 0.571691 -0.588506 0.566195 -0.582848 -0.582848 0.696639 -0.0204894 -0.717129 
0.0285481 -0.0285481 -0.999185 0.0285481 -0.999185 -0.0285481 0.999185 -0.0285481 -0.0285481 
-0.0285481 0.0285481 -0.999185 -0.999185 0.0285481 -0.0285481 0 0.0285598 -0.999592 
0 0.0285598 -0.999592 0 0.0285598 -0.999592 0 0 -1 
0 0 -1 -0.696786 0 -0.717279 0.696786 0 -0.717279 
0.0285598 0 -0.999592 0.999592 0 -0.0285598 -0.0285481 0.999185 -0.0285481 
0 0.999592 -0.0285598 0 0.999592 -0.0285598 -0.696639 0.717129 -0.0204894 
-0.717129 0.696639 -0.0204894 -0.0204894 -0.696639 -0.717129 0 -0.696786 -0.717279 
-0.571691 -0.571691 -0.588506 0.696786 0 -0.717279 0.0285481 0.0285481 -0.999185 
0.999185 0.0285481 -0.0285481 -1 0 0 0.706963 0.0201989 -0.706963 
0.706963 0.706963 -0.0201989 0.706963 0.706963 -0.0201989 -0.582848 0.566195 -0.582848 
-0.999592 0 -0.0285598 0.571691 0.571691 -0.588506 0.0201989 0.706963 -0.706963 
0.706963 0.706963 -0.0201989 0.706963 0.706963 -0.0201989 -0.0285481 0.0285481 -0.999185 
-0.999185 0.0285481 -0.0285481 -0.566195 0.582848 -0.582848 0.566195 0.582848 -0.582848 
0.0285481 0.0285481 -0.999185 0.706963 0.706963 -0.0201989 0.706963 0.706963 -0.0201989 
-0.0285481 0.999185 -0.0285481 0 0.999592 -0.0285598 0 1 0 
0 0.999592 -0.0285598 0.0285481 0.999185 -0.0285481 -0.0285481 -0.999185 0.0285481 
-0.999185 -0.0285481 0.0285481 0.0285481 -0.999185 0.0285481 0.588339 -0.588339 -0.55472 
-0.999592 0 0.0285598 0.566195 -0.582848 -0.582848 0.566195 -0.582848 -0.582848 
0 -0.707107 -0.707107 0 -0.707107 -0.707107 0 -0.707107 -0.707107 
0 -0.707107 -0.707107 0.0201989 -0.706963 -0.706963 0.0201989 -0.706963 -0.706963 
0.706963 -0.706963 -0.0201989 -0.999185 0.0285481 0.0285481 0.696786 -0.717279 0 
0 -1 0 0 -1 0 0 -1 0 
0 -1 0 0.0285598 -0.999592 0 0.707107 -0.707107 0 
-0.57735 0.57735 0.57735 -0.57735 0.57735 0.57735 -0.57735 0.57735 0.57735 
0.707107 -0.707107 0 0.582848 -0.582848 -0.566195 0.707107 -0.707107 0 
-0.706963 0.706963 0.0201989 -0.717279 0.696786 0 0.707107 -0.707107 0 
0.999592 -0.0285598 0 -0.999592 0.0285598 0 1 0 0 
-0.0285598 0.999592 0 0 1 0 0 1 0 
-0.696786 0.717279 0 -0.717279 0.696786 0 0.999592 0.0285598 0 
-1 0 0 0.582848 0.582848 -0.566195 0.582848 0.582848 -0.566195 
-1 0 0 0.582848 0.582848 -0.566195 0.582848 0.582848 -0.566195 
-0.999592 0.0285598 0 0.582848 0.582848 -0.566195 0.582848 0.582848 -0.566195 
-0.0285598 0.999592 0 0 1 0 0 1 0 
0 1 0 0.0285598 0.999592 0 -0.0285481 -0.0285481 0.999185 
-0.685865 -0.0207838 0.727432 0.55472 -0.588339 -0.588339 -0.0285481 -0.999185 -0.0285481 
-0.727432 -0.0207838 0.685865 0 -0.707107 -0.707107 0 -0.999592 -0.0285598 
0 -0.707107 -0.707107 0 -0.999592 -0.0285598 0.0204894 -0.717129 -0.696639 
0.0285598 -0.999592 0 0.999592 -0.0285598 0 -0.0285598 0 0.999592 
-0.696786 0 0.717279 -0.717279 0 0.696786 0.717279 -0.696786 0 
-0.0285481 0.0285481 0.999185 -0.696786 0 0.717279 -0.717279 0 0.696786 
0.696786 -0.717279 0 0 -1 0 0 -1 0 
0 -1 0 0 -1 0 0.0285598 -0.999592 0 
0.999592 -0.0285598 0 -0.706963 0.0201989 0.706963 -0.717279 0 0.696786 
0.582848 -0.582848 0.566195 0.588506 -0.571691 0.571691 -1 0 0 
0.571691 -0.588506 0.571691 0.0285598 -0.999592 0 0.999592 -0.0285598 0 
-0.999185 0.0285481 0.0285481 1 0 0 -0.0285481 0.999185 0.0285481 
0 1 0 0 1 0 -0.571691 0.588506 -0.571691 
-0.588506 0.571691 -0.571691 1 0 0 -0.717279 0 -0.696786 
0.582848 0.566195 -0.582848 0.999592 0 -0.0285598 -0.717279 0 -0.696786 
0.571691 0.571691 -0.588506 0.0285481 0.0285481 -0.999185 0.999185 0.0285481 -0.0285481 
-0.999592 0.0285598 0 0.566195 0.582848 -0.582848 0.0285481 0.0285481 -0.999185 
0.706963 0.706963 -0.0201989 0.706963 0.706963 -0.0201989 -0.0285598 0.999592 0 
0 1 0 0 1 0 0 1 0 
0 1 0 0 0.999592 -0.0285598 0.0285481 0.999185 -0.0285481 
-0.0285481 -0.999185 0.0285481 -0.999185 -0.0285481 0.0285481 0 -0.999592 0.0285598 
0.0285481 -0.999185 0.0285481 0.582848 -0.582848 0.566195 0.57735 -0.57735 0.57735 
-0.999592 0 0.0285598 0.57735 -0.57735 0.57735 0.706963 -0.706963 0.0201989 
-0.999592 0 0.0285598 0.696786 -0.717279 0 0 -1 0 
0 -1 0 0 -1 0 0 -1 0 
0.0285598 -0.999592 0 0.999592 -0.0285598 0 -0.999592 0 0.0285598 
0.717279 -0.696786 0 -0.999185 0.0285481 0.0285481 0.696786 -0.717279 0 
0.0285598 -0.999592 0 0.999592 -0.0285598 0 -0.57735 0.57735 0.57735 
-0.57735 0.57735 0.57735 -0.57735 0.57735 0.57735 1 0 0 
-0.0285481 0.999185 0.0285481 -0.571691 0.588506 -0.571691 -0.582848 0.566195 -0.582848 
-0.582848 0.566195 -0.582848 1 0 0 -0.707107 0 -0.707107 
-0.707107 0 -0.707107 1 0 0 -0.717129 0.0204894 -0.696639 
-0.999592 0.0285598 0 0.999592 0.0285598 0 -0.707107 0.707107 0 
-0.707107 0.707107 0 0.707107 0.707107 0 0.707107 0.707107 0 
-0.0285598 0.999592 0 0 1 0 0 1 0 
0 1 0 0 1 0 0 1 0 
0.0285598 0.999592 0 -0.0285481 -0.0285481 0.999185 0 -0.0285598 0.999592 
0.0285481 -0.0285481 0.999185 -0.0285598 0 0.999592 0 0 1 
0 -0.696786 0.717279 0.0201989 -0.706963 0.706963 -0.0285598 0 0.999592 
-0.696786 0 0.717279 -0.717129 -0.0204894 0.696639 -0.0204894 -0.717129 0.696639 
0 -0.717279 0.696786 0 -1 0 0 -1 0 
0 -1 0 0 -1 0 0 -1 0 
0.0285598 -0.999592 0 0.999592 -0.0285598 0 -0.0285598 0 0.999592 
-0.696786 0 0.717279 -0.717279 0 0.696786 0.588506 -0.571691 -0.571691 
-0.0285481 0.0285481 0.999185 -0.696786 0 0.717279 -0.717279 0 0.696786 
0.571691 -0.588506 -0.571691 0.0285598 -0.999592 0 0.999592 -0.0285598 0 
-0.706963 0.0201989 0.706963 -0.717279 0 0.696786 1 0 0 
-0.999592 0 -0.0285598 -0.582848 0.566195 -0.582848 1 0 0 
-0.706963 0.0201989 -0.706963 -0.999185 0.0285481 -0.0285481 0.999592 0 0.0285598 
-0.0285481 0.999185 -0.0285481 -0.571691 0.588506 0.571691 -0.582848 0.582848 0.566195 
-0.588506 0.571691 0.571691 0.999185 0.0285481 0.0285481 -0.999185 0.0285481 0.0285481 
0.706963 0.706963 0.0201989 0.706963 0.706963 0.0201989 -0.0285481 0.999185 0.0285481 
0 0.999592 0.0285598 0 0.999592 0.0285598 0 0.999592 0.0285598 
0 1 0 0 0.999592 0.0285598 0.0285481 0.999185 0.0285481 
-0.0285598 -0.999592 0 -0.999592 -0.0285598 0 0 -1 0 
0 -1 0 0 -1 0 0 -1 0 
0 -1 0 0 -1 0 0.0285598 -0.999592 0 
0.582848 -0.582848 -0.566195 -1 0 0 0.57735 -0.57735 -0.57735 
0.57735 -0.57735 -0.57735 0.57735 -0.57735 -0.57735 -1 0 0 
0.582848 -0.582848 -0.566195 0.999592 -0.0285598 0 -1 0 0 
1 0 0 -1 0 0 0.999592 0.0285598 0 
-0.999592 0.0285598 0 0.582848 0.566195 0.582848 0.588506 0.571691 0.571691 
0.582848 0.582848 0.566195 -0.0285598 0.999592 0 -0.696786 0.717279 0 
-0.706963 0.706963 0.0201989 0.706963 0.0201989 0.706963 0.706963 0.0201989 0.706963 
-0.0201989 0.706963 0.706963 -0.0201989 0.706963 0.706963 0 0.707107 0.707107 
0 0.707107 0.707107 0 0.707107 0.707107 0 0.707107 0.707107 
-0.566195 0.582848 0.582848 -0.566195 0.582848 0.582848 -0.571691 0.588506 0.571691 
0.566195 0.582848 0.582848 0.571691 0.588506 0.571691 0.571691 0.588506 0.571691 
0.0201989 0.706963 0.706963 0.0201989 0.706963 0.706963 0 1 0 
-0.0285481 -0.0285481 -0.999185 -0.0285481 -0.999185 -0.0285481 -0.57735 -0.57735 -0.57735 
0.0285598 0 -0.999592 0.0293864 -0.999136 -0.0293864 0.999592 0 -0.0285598 
-0.0285481 -0.0285481 -0.999185 -0.57735 -0.57735 -0.57735 -0.57735 -0.57735 -0.57735 
0.0285481 0.0285481 -0.999185 0.706963 0.706963 -0.0201989 0.717129 0.696639 -0.0204894 
-0.0285598 -0.999592 0 -0.999592 -0.0285598 0 0 -0.717279 -0.696786 
0 -0.717279 -0.696786 0 -0.717279 -0.696786 0 -0.717279 -0.696786 
0 -0.717279 -0.696786 0 -0.717279 -0.696786 0 -0.717279 -0.696786 
0.566195 -0.582848 -0.582848 -0.566195 -0.582848 -0.582848 0.0285598 0 -0.999592 
0.717129 0.696639 -0.0204894 0.706963 0.706963 -0.0201989 -1 0 0 
0.582848 -0.566195 -0.582848 0.999592 0 -0.0285598 -1 0 0 
1 0 0 -1 0 0 1 0 0 
-1 0 0 0.999592 0.0285598 0 -0.999185 0.0285481 0.0285481 
0.707107 0.707107 0 0.707107 0.707107 0 -0.0285481 0.999185 0.0285481 
0 0.999592 0.0285598 0 0.707107 0.707107 -0.0201989 0.706963 0.706963 
0 0.707107 0.707107 0 0.707107 0.707107 0 0.717279 0.696786 
0 0.707107 0.707107 -0.571691 0.588506 0.571691 -0.566195 0.582848 0.582848 
-0.588506 0.571691 0.571691 0.57735 0.57735 0.57735 0.582848 0.582848 0.566195 
0.582848 0.582848 0.566195 -0.999568 0.0293991 0 0.696786 0.717279 0 
0.707107 0.707107 0 0 1 0 -0.57735 -0.57735 -0.57735 
-0.0285481 -0.999185 -0.0285481 -0.57735 -0.57735 -0.57735 0 -1 0 
0.0293991 -0.999568 0 1 0 0 -0.0204894 -0.717129 -0.696639 
-0.0285598 -0.999592 0 -0.707107 -0.707107 0 0 -0.707107 -0.707107 
0 -0.707107 -0.707107 0 -0.707107 -0.707107 0 -0.707107 -0.707107 
0 -0.707107 -0.707107 0 -0.707107 -0.707107 0 -0.707107 -0.707107 
0 -0.707107 -0.707107 0 -0.707107 -0.707107 0 -0.707107 -0.707107 
0 -0.707107 -0.707107 0 -0.707107 -0.707107 -0.566195 -0.582848 -0.582848 
-0.566195 -0.582848 -0.582848 0.582848 0.582848 -0.566195 0.588506 0.571691 -0.571691 
-0.706963 -0.706963 0.0201989 -0.999185 -0.0285481 0.0285481 0.588506 0.571691 -0.571691 
0.582848 0.582848 -0.566195 -0.999592 0 0.0285598 0.717279 0 -0.696786 
-0.999592 0 0.0285598 0.717279 0 -0.696786 -0.999592 0 0.0285598 
0.717279 0 -0.696786 -0.999185 0.0285481 0.0285481 0.717129 0.0204894 -0.696639 
-0.0201989 0.706963 0.706963 -0.0201989 0.706963 0.706963 0 0.707107 0.707107 
0 0.707107 0.707107 0 0.707107 0.707107 0 0.707107 0.707107 
-0.566195 0.582848 0.582848 -0.566195 0.582848 0.582848 -0.582848 0.582848 0.566195 
0.582848 0.582848 -0.566195 0.582848 0.582848 -0.566195 -0.0285598 0.999592 0 
-0.696786 0.717279 0 -0.717279 0.696786 0 0.707107 0.707107 0 
0.707107 0.707107 0 -0.999568 0.0293991 0 0.696786 0.717279 0 
0.707107 0.707107 0 0 1 0 -0.0285481 -0.0285481 -0.999185 
-0.0285481 -0.999185 -0.0285481 -0.999185 -0.0285481 -0.0285481 0.0285481 -0.0285481 -0.999185 
0.0285481 -0.999185 -0.0285481 0.999185 -0.0285481 -0.0285481 -0.0285598 0 -0.999592 
-0.999592 0 -0.0285598 0.0285598 0 -0.999592 0.582848 -0.566195 -0.582848 
-0.0204894 -0.696639 -0.717129 -0.999592 0 -0.0285598 0 -0.696786 -0.717279 
0.566195 -0.582848 -0.582848 0 -0.707107 -0.707107 0 -0.707107 -0.707107 
0 -0.707107 -0.707107 0 -0.707107 -0.707107 0 -0.707107 -0.707107 
0 -0.707107 -0.707107 0 -0.707107 -0.707107 -0.566195 -0.582848 -0.582848 
0 -0.707107 -0.707107 0 -0.717279 -0.696786 0 -0.717279 -0.696786 
0.0285598 -0.999592 0 0.999592 -0.0285598 0 -0.717129 -0.0204894 0.696639 
-0.717279 0 0.696786 0.582848 0.566195 -0.582848 0.999592 0 -0.0285598 
-0.0285481 -0.0285481 0.999185 -0.696786 0 0.717279 -0.717279 0 0.696786 
0.571691 0.571691 -0.588506 0.0285598 0 -0.999592 0.999592 0 -0.0285598 
-0.0285598 0 0.999592 -0.696786 0 0.717279 -0.717279 0 0.696786 
0.696786 0 -0.717279 0.0285598 0 -0.999592 0.999592 0 -0.0285598 
-0.0285598 0 0.999592 -0.696786 0 0.717279 -0.717279 0 0.696786 
0.696786 0 -0.717279 0.0285598 0 -0.999592 0.999592 0 -0.0285598 
-0.0285598 0 0.999592 -0.696786 0 0.717279 -0.706963 0.0201989 0.706963 
0.696786 0 -0.717279 0.0285598 0 -0.999592 0.999592 0 -0.0285598 
-0.0285481 0.0285481 0.999185 0 0.0285598 0.999592 -0.0201989 0.706963 0.706963 
0 0.707107 0.707107 -0.571691 0.588506 0.571691 -0.566195 0.582848 0.582848 
-0.588506 0.571691 0.571691 0.696786 0 -0.717279 0.0285481 0.0285481 -0.999185 