# vtk DataFile Version 3.0
vtk output
ASCII
DATASET POLYDATA
POINTS 6658 float
77 73 102.03 77 72.0303 103 76.0303 73 103 
77.9697 73 103 77 73.9697 103 76 76 102.03 
76 75.0303 103 75.0303 76 103 76.9697 76 103 
76 77 102.03 75.0303 77 103 76.9697 77 103 
76 78 102.03 75.0303 78 103 76.9697 78 103 
76 79 102.03 75.0303 79 103 77 78.0303 103 
77 79 102.03 78 79 102.03 78 78.0303 103 
78.9697 79 103 76 79.9697 103 77 79.9697 103 
77.0303 80 103 78 80 102.03 78.9697 80 103 
78 81 102.03 77.0303 81 103 78.9697 81 103 
78 82 102.03 77.0303 82 103 78.9697 82 103 
78 83 102.03 77.0303 83 103 78.9697 83 103 
78 84 102.03 77.0303 84 103 78.9697 84 103 
78 85 102.03 77.0303 85 103 79 84.0303 103 
79 85 102.03 80 85 102.03 80 84.0303 103 
80.9697 85 103 78 85.9697 103 79 85.9697 103 
79.0303 86 103 80 86 102.03 80.9697 86 103 
80 87 102.03 79.0303 87 103 80.9697 87 103 
80 87.9697 103 88 96 102.03 88 95.0303 103 
87.0303 96 103 88.9697 96 103 88 97 102.03 
87.0303 97 103 88.9697 97 103 88 98 102.03 
87.0303 98 103 88.9697 98 103 88 99 102.03 
87.0303 99 103 88.9697 99 103 88 100 102.03 
87.0303 100 103 88.9697 100 103 88 101 102.03 
87.0303 101 103 88.9697 101 103 88 102 102.03 
87.0303 102 103 88.9697 102 103 88 103 102.03 
87.0303 103 103 88.9697 103 103 88 104 102.03 
87.0303 104 103 88.9697 104 103 88 105 102.03 
87.0303 105 103 88.9697 105 103 88 106 102.03 
87.0303 106 103 88.9697 106 103 88 107 102.03 
87.0303 107 103 88.9697 107 103 88 108 102.03 
87.0303 108 103 88.9697 108 103 88 109 102.03 
87.0303 109 103 88.9697 109 103 88 110 102.03 
87.0303 110 103 88.9697 110 103 88 111 102.03 
87.0303 111 103 88.9697 111 103 88 112 102.03 
87.0303 112 103 88.9697 112 103 88 113 102.03 
87.0303 113 103 88.9697 113 103 88 114 102.03 
87.0303 114 103 88.9697 114 103 88 115 102.03 
87.0303 115 103 88.9697 115 103 88 116 102.03 
87.0303 116 103 88.9697 116 103 88 117 102.03 
87.0303 117 103 88.9697 117 103 88 118 102.03 
87.0303 118 103 88.9697 118 103 88 119 102.03 
87.0303 119 103 88.9697 119 103 88 120 102.03 
87.0303 120 103 88.9697 120 103 86 121 102.03 
86 120.03 103 85.0303 121 103 87 121 102.03 
87 120.03 103 88 121 102.03 88.9697 121 103 
86 122 102.03 85.0303 122 103 86.9697 122 103 
87 121.97 103 87.0303 122 103 88 122 102.03 
88.9697 122 103 84 123 102.03 84 122.03 103 
83.0303 123 103 85 123 102.03 85 122.03 103 
86 123 102.03 86.9697 123 103 88 123 102.03 
87.0303 123 103 89 122.03 103 89 123 102.03 
89.9697 123 103 84 124 102.03 83.0303 124 103 
84.9697 124 103 85 123.97 103 86 123.97 103 
88 123.97 103 89 123.97 103 82 125 102.03 
82 124.03 103 81.0303 125 103 83 125 102.03 
83 124.03 103 84 125 102.03 84.9697 125 103 
82 126 102.03 81.0303 126 103 82.9697 126 103 
83 125.97 103 84 125.97 103 81 127 102.03 
81 126.03 103 80.0303 127 103 82 127 102.03 
82.9697 127 103 81 127.97 103 82 127.97 103 
81 131 102.03 81 130.03 103 80.0303 131 103 
82 131 102.03 82 130.03 103 82.9697 131 103 
81 131.97 103 81.0303 132 103 82 132 102.03 
82.9697 132 103 82 133 102.03 81.0303 133 103 
82.9697 133 103 82 134 102.03 81.0303 134 103 
82.9697 134 103 82 135 102.03 81.0303 135 103 
82.9697 135 103 82 136 102.03 81.0303 136 103 
82.9697 136 103 82 137 102.03 81.0303 137 103 
82.9697 137 103 82 138 102.03 81.0303 138 103 
82.9697 138 103 80 139 102.03 80 138.03 103 
79.0303 139 103 81 139 102.03 81 138.03 103 
82 139 102.03 82.9697 139 103 80 140 102.03 
79.0303 140 103 80.9697 140 103 81 139.97 103 
82 139.97 103 79 141 102.03 79 140.03 103 
78.0303 141 103 80 141 102.03 80.9697 141 103 
79 141.97 103 80 141.97 103 78 146 102.03 
78 145.03 103 77.0303 146 103 78.9697 146 103 
78 147 102.03 77.0303 147 103 78.9697 147 103 
78 148 102.03 77.0303 148 103 78.9697 148 103 
78 149 102.03 77.0303 149 103 78.9697 149 103 
78 150 102.03 77.0303 150 103 78.9697 150 103 
78 151 102.03 77.0303 151 103 78.9697 151 103 
78 152 102.03 77.0303 152 103 78.9697 152 103 
78 152.97 103 90 153 102.03 90 152.03 103 
89.0303 153 103 90.9697 153 103 90 154 102.03 
89.0303 154 103 90.9697 154 103 90 154.97 103 
77 72 103.03 77 71.0303 104 76.0303 72 104 
78 72 103.03 78 71.0303 104 78.9697 72 104 
76.0303 73 104 78 73 103.03 78.9697 73 104 
77 74 103.03 76.0303 74 104 78 74 103.03 
78.9697 74 104 76 75 103.03 76 74.0303 104 
75.0303 75 104 77 75 103.03 78 75 103.03 
78.9697 75 104 75 76 103.03 75 75.0303 104 
74.0303 76 104 77 76 103.03 78 76 103.03 
78.9697 76 104 75 77 103.03 74.0303 77 104 
77 77 103.03 78 77 103.03 78.9697 77 104 
75 78 103.03 74.0303 78 104 77 78 103.03 
78 78 103.03 79 77.0303 104 79 78 103.03 
80 78 103.03 80 77.0303 104 80.9697 78 104 
75 79 103.03 74.0303 79 104 79 79 103.03 
80 79 103.03 80.9697 79 104 75 80 103.03 
74.0303 80 104 76 80 103.03 77 80 103.03 
79 80 103.03 80 80 103.03 80.9697 80 104 
75 81 103.03 74.0303 81 104 76 81 103.03 
77 81 103.03 79 81 103.03 80 81 103.03 
80.9697 81 104 75 81.9697 104 76 81.9697 104 
76.0303 82 104 77 82 103.03 79 82 103.03 
80 82 103.03 81 81.0303 104 81 82 103.03 
82 82 103.03 82 81.0303 104 82.9697 82 104 
77 83 103.03 76.0303 83 104 79 83 103.03 
80 83 103.03 81 83 103.03 82 83 103.03 
82.9697 83 104 77 84 103.03 76.0303 84 104 
79 84 103.03 80 84 103.03 81 84 103.03 
82 84 103.03 82.9697 84 104 77 85 103.03 
76.0303 85 104 81 85 103.03 82 85 103.03 
82.9697 85 104 77 86 103.03 76.0303 86 104 
78 86 103.03 79 86 103.03 81 86 103.03 
82 86 103.03 82.9697 86 104 77 87 103.03 
76.0303 87 104 78 87 103.03 79 87 103.03 
81 87 103.03 81.9697 87 104 82 86.9697 104 
77 88 103.03 76.0303 88 104 78 88 103.03 
79 88 103.03 80 88 103.03 80.9697 88 104 
81 87.9697 104 77 89 103.03 76.0303 89 104 
78 89 103.03 79 89 103.03 80 89 103.03 
80.9697 89 104 77 90 103.03 76.0303 90 104 
78 90 103.03 79 90 103.03 80 90 103.03 
80.9697 90 104 77 91 103.03 76.0303 91 104 
78 91 103.03 79 91 103.03 80 91 103.03 
80.9697 91 104 77 91.9697 104 78 91.9697 104 
78.0303 92 104 79 92 103.03 80 92 103.03 
80.9697 92 104 79 93 103.03 78.0303 93 104 
80 93 103.03 80.9697 93 104 79 94 103.03 
78.0303 94 104 80 94 103.03 81 93.0303 104 
81 94 103.03 82 94 103.03 82 93.0303 104 
83 94 103.03 83 93.0303 104 84 94 103.03 
84 93.0303 104 84.9697 94 104 79 95 103.03 
78.0303 95 104 80 95 103.03 81 95 103.03 
82 95 103.03 83 95 103.03 84 95 103.03 
84.9697 95 104 79 96 103.03 78.0303 96 104 
80 96 103.03 81 96 103.03 82 96 103.03 
83 96 103.03 84 96 103.03 85 95.0303 104 
85 96 103.03 86 96 103.03 86 95.0303 104 
87 96 103.03 87 95.0303 104 88 95.0303 104 
89 96 103.03 89 95.0303 104 90 96 103.03 
90 95.0303 104 90.9697 96 104 79 97 103.03 
78.0303 97 104 80 97 103.03 81 97 103.03 
82 97 103.03 83 97 103.03 84 97 103.03 
85 97 103.03 86 97 103.03 87 97 103.03 
89 97 103.03 90 97 103.03 90.9697 97 104 
79 97.9697 104 80 97.9697 104 80.0303 98 104 
81 98 103.03 82 98 103.03 83 98 103.03 
84 98 103.03 85 98 103.03 86 98 103.03 
87 98 103.03 89 98 103.03 90 98 103.03 
90.9697 98 104 81 99 103.03 80.0303 99 104 
82 99 103.03 83 99 103.03 84 99 103.03 
85 99 103.03 86 99 103.03 87 99 103.03 
89 99 103.03 90 99 103.03 90.9697 99 104 
81 100 103.03 80.0303 100 104 82 100 103.03 
83 100 103.03 84 100 103.03 85 100 103.03 
86 100 103.03 87 100 103.03 89 100 103.03 
90 100 103.03 90.9697 100 104 81 101 103.03 
80.0303 101 104 82 101 103.03 83 101 103.03 
84 101 103.03 85 101 103.03 86 101 103.03 
87 101 103.03 89 101 103.03 90 101 103.03 
90.9697 101 104 81 102 103.03 80.0303 102 104 
82 102 103.03 83 102 103.03 84 102 103.03 
85 102 103.03 86 102 103.03 87 102 103.03 
89 102 103.03 90 102 103.03 90.9697 102 104 
81 103 103.03 80.0303 103 104 82 103 103.03 
83 103 103.03 84 103 103.03 85 103 103.03 
86 103 103.03 87 103 103.03 89 103 103.03 
90 103 103.03 90.9697 103 104 81 104 103.03 
80.0303 104 104 82 104 103.03 83 104 103.03 
84 104 103.03 85 104 103.03 86 104 103.03 
87 104 103.03 89 104 103.03 90 104 103.03 
90.9697 104 104 81 105 103.03 80.0303 105 104 
82 105 103.03 83 105 103.03 84 105 103.03 
85 105 103.03 86 105 103.03 87 105 103.03 
89 105 103.03 90 105 103.03 90.9697 105 104 
81 106 103.03 80.0303 106 104 82 106 103.03 
83 106 103.03 84 106 103.03 85 106 103.03 
86 106 103.03 87 106 103.03 89 106 103.03 
90 106 103.03 90.9697 106 104 81 107 103.03 
80.0303 107 104 82 107 103.03 83 107 103.03 
84 107 103.03 85 107 103.03 86 107 103.03 
87 107 103.03 89 107 103.03 90 107 103.03 
90.9697 107 104 81 108 103.03 80.0303 108 104 
82 108 103.03 83 108 103.03 84 108 103.03 
85 108 103.03 86 108 103.03 87 108 103.03 
89 108 103.03 90 108 103.03 90.9697 108 104 
81 109 103.03 80.0303 109 104 82 109 103.03 
83 109 103.03 84 109 103.03 85 109 103.03 
86 109 103.03 87 109 103.03 89 109 103.03 
90 109 103.03 90.9697 109 104 81 110 103.03 
80.0303 110 104 82 110 103.03 83 110 103.03 
84 110 103.03 85 110 103.03 86 110 103.03 
87 110 103.03 89 110 103.03 90 110 103.03 
90.9697 110 104 81 111 103.03 80.0303 111 104 
82 111 103.03 83 111 103.03 84 111 103.03 
85 111 103.03 86 111 103.03 87 111 103.03 
89 111 103.03 90 111 103.03 90.9697 111 104 
81 112 103.03 80.0303 112 104 82 112 103.03 
83 112 103.03 84 112 103.03 85 112 103.03 
86 112 103.03 87 112 103.03 89 112 103.03 
90 112 103.03 90.9697 112 104 81 113 103.03 
80.0303 113 104 82 113 103.03 83 113 103.03 
84 113 103.03 85 113 103.03 86 113 103.03 
87 113 103.03 89 113 103.03 90 113 103.03 
90.9697 113 104 81 114 103.03 80.0303 114 104 
82 114 103.03 83 114 103.03 84 114 103.03 
85 114 103.03 86 114 103.03 87 114 103.03 
89 114 103.03 90 114 103.03 90.9697 114 104 
81 115 103.03 80.0303 115 104 82 115 103.03 
83 115 103.03 84 115 103.03 85 115 103.03 
86 115 103.03 87 115 103.03 89 115 103.03 
90 115 103.03 90.9697 115 104 81 116 103.03 
80.0303 116 104 82 116 103.03 83 116 103.03 
84 116 103.03 85 116 103.03 86 116 103.03 
87 116 103.03 89 116 103.03 90 116 103.03 
90.9697 116 104 81 117 103.03 80.0303 117 104 
82 117 103.03 83 117 103.03 84 117 103.03 
85 117 103.03 86 117 103.03 87 117 103.03 
89 117 103.03 90 117 103.03 90.9697 117 104 
[...]
POINT_DATA 6658
SCALARS scalars float
LOOKUP_TABLE default
1 1 1 1 1 1 1 1 1 
1 1 1 1 1 1 1 1 1 
1 1 1 1 1 1 1 1 1 
1 1 1 1 1 1 1 1 1 
1 1 1 1 1 1 1 1 1 
1 1 1 1 1 1 1 1 1 
1 1 1 1 1 1 1 1 1 
1 1 1 1 1 1 1 1 1 
1 1 1 1 1 1 1 1 1 
1 1 1 1 1 1 1 1 1 
1 1 1 1 1 1 1 1 1 
1 1 1 1 1 1 1 1 1 
1 1 1 1 1 1 1 1 1 
1 1 1 1 1 1 1 1 1 
1 1 1 1 1 1 1 1 1 
1 1 1 1 1 1 1 1 1 
1 1 1 1 1 1 1 1 1 
1 1 1 1 1 1 1 1 1 
1 1 1 1 1 1 1 1 1 
1 1 1 1 1 1 1 1 1 
1 1 1 1 1 1 1 1 1 
1 1 1 1 1 1 1 1 1 
1 1 1 1 1 1 1 1 1 
1 1 1 1 1 1 1 1 1 
1 1 1 1 1 1 1 1 1 
1 1 1 1 1 1 1 1 1 
1 1 1 1 1 1 1 1 1 
1 1 1 1 1 1 1 1 1 
1 1 1 1 1 1 1 1 1 
1 1 1 1 1 1 1 1 1 
1 1 1 1 1 1 1 1 1 
1 1 1 1 1 1 1 1 1 
1 1 1 1 1 1 1 1 1 
1 1 1 1 1 1 1 1 1 
1 1 1 1 1 1 1 1 1 
1 1 1 1 1 1 1 1 1 
1 1 1 1 1 1 1 1 1 
1 1 1 1 1 1 1 1 1 
1 1 1 1 1 1 1 1 1 
1 1 1 1 1 1 1 1 1 
1 1 1 1 1 1 1 1 1 
1 1 1 1 1 1 1 1 1 
1 1 1 1 1 1 1 1 1 
1 1 1 1 1 1 1 1 1 
1 1 1 1 1 1 1 1 1 
1 1 1 1 1 1 1 1 1 
1 1 1 1 1 1 1 1 1 
1 1 1 1 1 1 1 1 1 
1 1 1 1 1 1 1 1 1 
1 1 1 1 1 1 1 1 1 
1 1 1 1 1 1 1 1 1 
1 1 1 1 1 1 1 1 1 
1 1 1 1 1 1 1 1 1 
1 1 1 1 1 1 1 1 1 
1 1 1 1 1 1 1 1 1 
1 1 1 1 1 1 1 1 1 
1 1 1 1 1 1 1 1 1 
1 1 1 1 1 1 1 1 1 
1 1 1 1 1 1 1 1 1 
1 1 1 1 1 1 1 1 1 
1 1 1 1 1 1 1 1 1 
1 1 1 1 1 1 1 1 1 
1 1 1 1 1 1 1 1 1 
1 1 1 1 1 1 1 1 1 
1 1 1 1 1 1 1 1 1 
1 1 1 1 1 1 1 1 1 
1 1 1 1 1 1 1 1 1 
1 1 1 1 1 1 1 1 1 
1 1 1 1 1 1 1 1 1 
1 1 1 1 1 1 1 1 1 
1 1 1 1 1 1 1 1 1 
1 1 1 1 1 1 1 1 1 
1 1 1 1 1 1 1 1 1 
1 1 1 1 1 1 1 1 1 
1 1 1 1 1 1 1 1 1 
1 1 1 1 1 1 1 1 1 
1 1 1 1 1 1 1 1 1 
1 1 1 1 1 1 1 1 1 
1 1 1 1 1 1 1 1 1 
1 1 1 1 1 1 1 1 1 
1 1 1 1 1 1 1 1 1 
1 1 1 1 1 1 1 1 1 
1 1 1 1 1 1 1 1 1 
1 1 1 1 1 1 1 1 1 
1 1 1 1 1 1 1 1 1 
1 1 1 1 1 1 1 1 1 
1 1 1 1 1 1 1 1 1 
1 1 1 1 1 1 1 1 1 
1 1 1 1 1 1 1 1 1 
1 1 1 1 1 1 1 1 1 
1 1 1 1 1 1 1 1 1 
1 1 1 1 1 1 1 1 1 
1 1 1 1 1 1 1 1 1 
1 1 1 1 1 1 1 1 1 
1 1 1 1 1 1 1 1 1 
1 1 1 1 1 1 1 1 1 
1 1 1 1 1 1 1 1 1 
1 1 1 1 1 1 1 1 1 
1 1 1 1 1 1 1 1 1 
1 1 1 1 1 1 1 1 1 
1 1 1 1 1 1 1 1 1 
1 1 1 1 1 1 1 1 1 
1 1 1 1 1 1 1 1 1 
1 1 1 1 1 1 1 1 1 
1 1 1 1 1 1 1 1 1 
1 1 1 1 1 1 1 1 1 
1 1 1 1 1 1 1 1 1 
1 1 1 1 1 1 1 1 1 
1 1 1 1 1 1 1 1 1 
1 1 1 1 1 1 1 1 1 
1 1 1 1 1 1 1 1 1 
1 1 1 1 1 1 1 1 1 
1 1 1 1 1 1 1 1 1 
1 1 1 1 1 1 1 1 1 
1 1 1 1 1 1 1 1 1 
1 1 1 1 1 1 1 1 1 
1 1 1 1 1 1 1 1 1 
1 1 1 1 1 1 1 1 1 
1 1 1 1 1 1 1 1 1 
1 1 1 1 1 1 1 1 1 
1 1 1 1 1 1 1 1 1 
1 1 1 1 1 1 1 1 1 
1 1 1 1 1 1 1 1 1 
1 1 1 1 1 1 1 1 1 
1 1 1 1 1 1 1 1 1 
1 1 1 1 1 1 1 1 1 
1 1 1 1 1 1 1 1 1 
1 1 1 1 1 1 1 1 1 
1 1 1 1 1 1 1 1 1 
1 1 1 1 1 1 1 1 1 
1 1 1 1 1 1 1 1 1 
1 1 1 1 1 1 1 1 1 
1 1 1 1 1 1 1 1 1 
1 1 1 1 1 1 1 1 1 
1 1 1 1 1 1 1 1 1 
1 1 1 1 1 1 1 1 1 
1 1 1 1 1 1 1 1 1 
1 1 1 1 1 1 1 1 1 
1 1 1 1 1 1 1 1 1 
1 1 1 1 1 1 1 1 1 
1 1 1 1 1 1 1 1 1 
1 1 1 1 1 1 1 1 1 
1 1 1 1 1 1 1 1 1 
1 1 1 1 1 1 1 1 1 
1 1 1 1 1 1 1 1 1 
1 1 1 1 1 1 1 1 1 
1 1 1 1 1 1 1 1 1 
1 1 1 1 1 1 1 1 1 
1 1 1 1 1 1 1 1 1 
1 1 1 1 1 1 1 1 1 
1 1 1 1 1 1 1 1 1 
1 1 1 1 1 1 1 1 1 
1 1 1 1 1 1 1 1 1 
1 1 1 1 1 1 1 1 1 
1 1 1 1 1 1 1 1 1 
1 1 1 1 1 1 1 1 1 
1 1 1 1 1 1 1 1 1 
1 1 1 1 1 1 1 1 1 
1 1 1 1 1 1 1 1 1 
1 1 1 1 1 1 1 1 1 
1 1 1 1 1 1 1 1 1 
1 1 1 1 1 1 1 1 1 
1 1 1 1 1 1 1 1 1 
1 1 1 1 1 1 1 1 1 
1 1 1 1 1 1 1 1 1 
1 1 1 1 1 1 1 1 1 
1 1 1 1 1 1 1 1 1 
1 1 1 1 1 1 1 1 1 
1 1 1 1 1 1 1 1 1 
1 1 1 1 1 1 1 1 1 
1 1 1 1 1 1 1 1 1 
1 1 1 1 1 1 1 1 1 
1 1 1 1 1 1 1 1 1 
1 1 1 1 1 1 1 1 1 
1 1 1 1 1 1 1 1 1 
1 1 1 1 1 1 1 1 1 
1 1 1 1 1 1 1 1 1 
1 1 1 1 1 1 1 1 1 
1 1 1 1 1 1 1 1 1 
1 1 1 1 1 1 1 1 1 
1 1 1 1 1 1 1 1 1 
1 1 1 1 1 1 1 1 1 
1 1 1 1 1 1 1 1 1 
1 1 1 1 1 1 1 1 1 
1 1 1 1 1 1 1 1 1 
1 1 1 1 1 1 1 1 1 
1 1 1 1 1 1 1 1 1 
1 1 1 1 1 1 1 1 1 
1 1 1 1 1 1 1 1 1 
1 1 1 1 1 1 1 1 1 
1 1 1 1 1 1 1 1 1 
1 1 1 1 1 1 1 1 1 
1 1 1 1 1 1 1 1 1 
1 1 1 1 1 1 1 1 1 
1 1 1 1 1 1 1 1 1 
1 1 1 1 1 1 1 1 1 
1 1 1 1 1 1 1 1 1 
1 1 1 1 1 1 1 1 1 
1 1 1 1 1 1 1 1 1 
1 1 1 1 1 1 1 1 1 
1 1 1 1 1 1 1 1 1 
1 1 1 1 1 1 1 1 1 
1 1 1 1 1 1 1 1 1 
1 1 1 1 1 1 1 1 1 
1 1 1 1 1 1 1 1 1 
1 1 1 1 1 1 1 1 1 
1 1 1 1 1 1 1 1 1 
1 1 1 1 1 1 1 1 1 
1 1 1 1 1 1 1 1 1 
1 1 1 1 1 1 1 1 1 
1 1 1 1 1 1 1 1 1 
1 1 1 1 1 1 1 1 1 
1 1 1 1 1 1 1 1 1 
1 1 1 1 1 1 1 1 1 
1 1 1 1 1 1 1 1 1 
1 1 1 1 1 1 1 1 1 
1 1 1 1 1 1 1 1 1 
1 1 1 1 1 1 1 1 1 
1 1 1 1 1 1 1 1 1 
1 1 1 1 1 1 1 1 1 
1 1 1 1 1 1 1 1 1 
1 1 1 1 1 1 1 1 1 
1 1 1 1 1 1 1 1 1 
1 1 1 1 1 1 1 1 1 
1 1 1 1 1 1 1 1 1 
1 1 1 1 1 1 1 1 1 
1 1 1 1 1 1 1 1 1 
1 1 1 1 1 1 1 1 1 
1 1 1 1 1 1 1 1 1 
1 1 1 1 1 1 1 1 1 
1 1 1 1 1 1 1 1 1 
1 1 1 1 1 1 1 1 1 
1 1 1 1 1 1 1 1 1 
1 1 1 1 1 1 1 1 1 
1 1 1 1 1 1 1 1 1 
1 1 1 1 1 1 1 1 1 
1 1 1 1 1 1 1 1 1 
1 1 1 1 1 1 1 1 1 
1 1 1 1 1 1 1 1 1 
1 1 1 1 1 1 1 1 1 
1 1 1 1 1 1 1 1 1 
1 1 1 1 1 1 1 1 1 
1 1 1 1 1 1 1 1 1 
1 1 1 1 1 1 1 1 1 
1 1 1 1 1 1 1 1 1 
1 1 1 1 1 1 1 1 1 
1 1 1 1 1 1 1 1 1 
1 1 1 1 1 1 1 1 1 
1 1 1 1 1 1 1 1 1 
1 1 1 1 1 1 1 1 1 
1 1 1 1 1 1 1 1 1 
1 1 1 1 1 1 1 1 1 
1 1 1 1 1 1 1 1 1 
1 1 1 1 1 1 1 1 1 
1 1 1 1 1 1 1 1 1 
1 1 1 1 1 1 1 1 1 
1 1 1 1 1 1 1 1 1 
1 1 1 1 1 1 1 1 1 
1 1 1 1 1 1 1 1 1 
1 1 1 1 1 1 1 1 1 
1 1 1 1 1 1 1 1 1 
1 1 1 1 1 1 1 1 1 
1 1 1 1 1 1 1 1 1 
1 1 1 1 1 1 1 1 1 
1 1 1 1 1 1 1 1 1 
1 1 1 1 1 1 1 1 1 
1 1 1 1 1 1 1 1 1 
1 1 1 1 1 1 1 1 1 
1 1 1 1 1 1 1 1 1 
1 1 1 1 1 1 1 1 1 
1 1 1 1 1 1 1 1 1 
1 1 1 1 1 1 1 1 1 
1 1 1 1 1 1 1 1 1 
1 1 1 1 1 1 1 1 1 
1 1 1 1 1 1 1 1 1 
1 1 1 1 1 1 1 1 1 
1 1 1 1 1 1 1 1 1 
1 1 1 1 1 1 1 1 1 
1 1 1 1 1 1 1 1 1 
1 1 1 1 1 1 1 1 1 
1 1 1 1 1 1 1 1 1 
1 1 1 1 1 1 1 1 1 
1 1 1 1 1 1 1 1 1 
1 1 1 1 1 1 1 1 1 
1 1 1 1 1 1 1 1 1 
1 1 1 1 1 1 1 1 1 
1 1 1 1 1 1 1 1 1 
1 1 1 1 1 1 1 1 1 
1 1 1 1 1 1 1 1 1 
1 1 1 1 1 1 1 1 1 
1 1 1 1 1 1 1 1 1 
1 1 1 1 1 1 1 1 1 
1 1 1 1 1 1 1 1 1 
1 1 1 1 1 1 1 1 1 
1 1 1 1 1 1 1 1 1 
1 1 1 1 1 1 1 1 1 
1 1 1 1 1 1 1 1 1 
1 1 1 1 1 1 1 1 1 
1 1 1 1 1 1 1 1 1 
1 1 1 1 1 1 1 1 1 
1 1 1 1 1 1 1 1 1 
1 1 1 1 1 1 1 1 1 
1 1 1 1 1 1 1 1 1 
1 1 1 1 1 1 1 1 1 
1 1 1 1 1 1 1 1 1 
1 1 1 1 1 1 1 1 1 
1 1 1 1 1 1 1 1 1 
1 1 1 1 1 1 1 1 1 
1 1 1 1 1 1 1 1 1 
1 1 1 1 1 1 1 1 1 
1 1 1 1 1 1 1 1 1 
1 1 1 1 1 1 1 1 1 
1 1 1 1 1 1 1 1 1 
1 1 1 1 1 1 1 1 1 
1 1 1 1 1 1 1 1 1 
1 1 1 1 1 1 1 1 1 
1 1 1 1 1 1 1 1 1 
1 1 1 1 1 1 1 1 1 
1 1 1 1 1 1 1 1 1 
1 1 1 1 1 1 1 1 1 
1 1 1 1 1 1 1 1 1 
1 1 1 1 1 1 1 1 1 
1 1 1 1 1 1 1 1 1 
1 1 1 1 1 1 1 1 1 
1 1 1 1 1 1 1 1 1 
1 1 1 1 1 1 1 1 1 
1 1 1 1 1 1 1 1 1 
1 1 1 1 1 1 1 1 1 
1 1 1 1 1 1 1 1 1 
1 1 1 1 1 1 1 1 1 
1 1 1 1 1 1 1 1 1 
1 1 1 1 1 1 1 1 1 
1 1 1 1 1 1 1 1 1 
1 1 1 1 1 1 1 1 1 
1 1 1 1 1 1 1 1 1 
1 1 1 1 1 1 1 1 1 
1 1 1 1 1 1 1 1 1 
1 1 1 1 1 1 1 1 1 
1 1 1 1 1 1 1 1 1 
1 1 1 1 1 1 1 1 1 
1 1 1 1 1 1 1 1 1 
1 1 1 1 1 1 1 1 1 
1 1 1 1 1 1 1 1 1 
1 1 1 1 1 1 1 1 1 
1 1 1 1 1 1 1 1 1 
1 1 1 1 1 1 1 1 1 
1 1 1 1 1 1 1 1 1 
1 1 1 1 1 1 1 1 1 
1 1 1 1 1 1 1 1 1 
1 1 1 1 1 1 1 1 1 
1 1 1 1 1 1 1 1 1 
1 1 1 1 1 1 1 1 1 
1 1 1 1 1 1 1 1 1 
1 1 1 1 1 1 1 1 1 
1 1 1 1 1 1 1 1 1 
1 1 1 1 1 1 1 1 1 
1 1 1 1 1 1 1 1 1 
1 1 1 1 1 1 1 1 1 
1 1 1 1 1 1 1 1 1 
1 1 1 1 1 1 1 1 1 
1 1 1 1 1 1 1 1 1 
1 1 1 1 1 1 1 1 1 
1 1 1 1 1 1 1 1 1 
1 1 1 1 1 1 1 1 1 
1 1 1 1 1 1 1 1 1 
1 1 1 1 1 1 1 1 1 
1 1 1 1 1 1 1 1 1 
1 1 1 1 1 1 1 1 1 
1 1 1 1 1 1 1 1 1 
1 1 1 1 1 1 1 1 1 
1 1 1 1 1 1 1 1 1 
1 1 1 1 1 1 1 1 1 
1 1 1 1 1 1 1 1 1 
1 1 1 1 1 1 1 1 1 
1 1 1 1 1 1 1 1 1 
1 1 1 1 1 1 1 1 1 
1 1 1 1 1 1 1 1 1 
1 1 1 1 1 1 1 1 1 
1 1 1 1 1 1 1 1 1 
1 1 1 1 1 1 1 1 1 
1 1 1 1 1 1 1 1 1 
1 1 1 1 1 1 1 1 1 
1 1 1 1 1 1 1 1 1 
1 1 1 1 1 1 1 1 1 
1 1 1 1 1 1 1 1 1 
1 1 1 1 1 1 1 1 1 
1 1 1 1 1 1 1 1 1 
1 1 1 1 1 1 1 1 1 
1 1 1 1 1 1 1 1 1 
1 1 1 1 1 1 1 1 1 
1 1 1 1 1 1 1 1 1 
1 1 1 1 1 1 1 1 1 
1 1 1 1 1 1 1 1 1 
1 1 1 1 1 1 1 1 1 
1 1 1 1 1 1 1 1 1 
1 1 1 1 1 1 1 1 1 
1 1 1 1 1 1 1 1 1 
1 1 1 1 1 1 1 1 1 
1 1 1 1 1 1 1 1 1 
1 1 1 1 1 1 1 1 1 
1 1 1 1 1 1 1 1 1 
1 1 1 1 1 1 1 1 1 
1 1 1 1 1 1 1 1 1 
1 1 1 1 1 1 1 1 1 
1 1 1 1 1 1 1 1 1 
1 1 1 1 1 1 1 1 1 
1 1 1 1 1 1 1 1 1 
1 1 1 1 1 1 1 1 1 
1 1 1 1 1 1 1 1 1 
1 1 1 1 1 1 1 1 1 
1 1 1 1 1 1 1 1 1 
1 1 1 1 1 1 1 1 1 
1 1 1 1 1 1 1 1 1 
1 1 1 1 1 1 1 1 1 
1 1 1 1 1 1 1 1 1 
1 1 1 1 1 1 1 1 1 
1 1 1 1 1 1 1 1 1 
1 1 1 1 1 1 1 1 1 
1 1 1 1 1 1 1 1 1 
1 1 1 1 1 1 1 1 1 
1 1 1 1 1 1 1 1 1 
1 1 1 1 1 1 1 1 1 
1 1 1 1 1 1 1 1 1 
1 1 1 1 1 1 1 1 1 
1 1 1 1 1 1 1 1 1 
1 1 1 1 1 1 1 1 1 
1 1 1 1 1 1 1 1 1 
1 1 1 1 1 1 1 1 1 
1 1 1 1 1 1 1 1 1 
1 1 1 1 1 1 1 1 1 
1 1 1 1 1 1 1 1 1 
1 1 1 1 1 1 1 1 1 
1 1 1 1 1 1 1 1 1 
1 1 1 1 1 1 1 1 1 
1 1 1 1 1 1 1 1 1 
1 1 1 1 1 1 1 1 1 
1 1 1 1 1 1 1 1 1 
1 1 1 1 1 1 1 1 1 
1 1 1 1 1 1 1 1 1 
1 1 1 1 1 1 1 1 1 
1 1 1 1 1 1 1 1 1 
1 1 1 1 1 1 1 1 1 
1 1 1 1 1 1 1 1 1 
1 1 1 1 1 1 1 1 1 
1 1 1 1 1 1 1 1 1 
1 1 1 1 1 1 1 1 1 
1 1 1 1 1 1 1 1 1 
1 1 1 1 1 1 1 1 1 
1 1 1 1 1 1 1 1 1 
1 1 1 1 1 1 1 1 1 
1 1 1 1 1 1 1 1 1 
1 1 1 1 1 1 1 1 1 
1 1 1 1 1 1 1 1 1 
1 1 1 1 1 1 1 1 1 
1 1 1 1 1 1 1 1 1 
1 1 1 1 1 1 1 1 1 
1 1 1 1 1 1 1 1 1 
1 1 1 1 1 1 1 1 1 
1 1 1 1 1 1 1 1 1 
1 1 1 1 1 1 1 1 1 
1 1 1 1 1 1 1 1 1 
1 1 1 1 1 1 1 1 1 
1 1 1 1 1 1 1 1 1 
1 1 1 1 1 1 1 1 1 
1 1 1 1 1 1 1 1 1 
1 1 1 1 1 1 1 1 1 
1 1 1 1 1 1 1 1 1 
1 1 1 1 1 1 1 1 1 
1 1 1 1 1 1 1 1 1 
1 1 1 1 1 1 1 1 1 
1 1 1 1 1 1 1 1 1 
1 1 1 1 1 1 1 1 1 
1 1 1 1 1 1 1 1 1 
1 1 1 1 1 1 1 1 1 
1 1 1 1 1 1 1 1 1 
1 1 1 1 1 1 1 1 1 
1 1 1 1 1 1 1 1 1 
1 1 1 1 1 1 1 1 1 
1 1 1 1 1 1 1 1 1 
1 1 1 1 1 1 1 1 1 
1 1 1 1 1 1 1 1 1 
1 1 1 1 1 1 1 1 1 
1 1 1 1 1 1 1 1 1 
1 1 1 1 1 1 1 1 1 
1 1 1 1 1 1 1 1 1 
1 1 1 1 1 1 1 1 1 
1 1 1 1 1 1 1 1 1 
1 1 1 1 1 1 1 1 1 
1 1 1 1 1 1 1 1 1 
1 1 1 1 1 1 1 1 1 
1 1 1 1 1 1 1 1 1 
1 1 1 1 1 1 1 1 1 
1 1 1 1 1 1 1 1 1 
1 1 1 1 1 1 1 1 1 
1 1 1 1 1 1 1 1 1 
1 1 1 1 1 1 1 1 1 
1 1 1 1 1 1 1 1 1 
1 1 1 1 1 1 1 1 1 
1 1 1 1 1 1 1 1 1 
1 1 1 1 1 1 1 1 1 
1 1 1 1 1 1 1 1 1 
1 1 1 1 1 1 1 1 1 
1 1 1 1 1 1 1 1 1 
1 1 1 1 1 1 1 1 1 
1 1 1 1 1 1 1 1 1 
1 1 1 1 1 1 1 1 1 
1 1 1 1 1 1 1 1 1 
1 1 1 1 1 1 1 1 1 
1 1 1 1 1 1 1 1 1 
1 1 1 1 1 1 1 1 1 
1 1 1 1 1 1 1 1 1 
1 1 1 1 1 1 1 1 1 
1 1 1 1 1 1 1 1 1 
1 1 1 1 1 1 1 1 1 
1 1 1 1 1 1 1 1 1 
1 1 1 1 1 1 1 1 1 
1 1 1 1 1 1 1 1 1 
1 1 1 1 1 1 1 1 1 
1 1 1 1 1 1 1 1 1 
1 1 1 1 1 1 1 1 1 
1 1 1 1 1 1 1 1 1 
1 1 1 1 1 1 1 1 1 
1 1 1 1 1 1 1 1 1 
1 1 1 1 1 1 1 1 1 
1 1 1 1 1 1 1 1 1 
1 1 1 1 1 1 1 1 1 
1 1 1 1 1 1 1 1 1 
1 1 1 1 1 1 1 1 1 
1 1 1 1 1 1 1 1 1 
1 1 1 1 1 1 1 1 1 
1 1 1 1 1 1 1 1 1 
1 1 1 1 1 1 1 1 1 
1 1 1 1 1 1 1 1 1 
1 1 1 1 1 1 1 1 1 
1 1 1 1 1 1 1 1 1 
1 1 1 1 1 1 1 1 1 
1 1 1 1 1 1 1 1 1 
1 1 1 1 1 1 1 1 1 
1 1 1 1 1 1 1 1 1 
1 1 1 1 1 1 1 1 1 
1 1 1 1 1 1 1 1 1 
1 1 1 1 1 1 1 1 1 
1 1 1 1 1 1 1 1 1 
1 1 1 1 1 1 1 1 1 
1 1 1 1 1 1 1 1 1 
1 1 1 1 1 1 1 1 1 
1 1 1 1 1 1 1 1 1 
1 1 1 1 1 1 1 1 1 
1 1 1 1 1 1 1 1 1 
1 1 1 1 1 1 1 1 1 
1 1 1 1 1 1 1 1 1 
1 1 1 1 1 1 1 1 1 
1 1 1 1 1 1 1 1 1 
1 1 1 1 1 1 1 1 1 
1 1 1 1 1 1 1 1 1 
1 1 1 1 1 1 1 1 1 
1 1 1 1 1 1 1 1 1 
1 1 1 1 1 1 1 1 1 
1 1 1 1 1 1 1 1 1 
1 1 1 1 1 1 1 1 1 
1 1 1 1 1 1 1 1 1 
1 1 1 1 1 1 1 1 1 
1 1 1 1 1 1 1 1 1 
1 1 1 1 1 1 1 1 1 
1 1 1 1 1 1 1 1 1 
1 1 1 1 1 1 1 1 1 
1 1 1 1 1 1 1 1 1 
1 1 1 1 1 1 1 1 1 
1 1 1 1 1 1 1 1 1 
1 1 1 1 1 1 1 1 1 
1 1 1 1 1 1 1 1 1 
1 1 1 1 1 1 1 1 1 
1 1 1 1 1 1 1 1 1 
1 1 1 1 1 1 1 1 1 
1 1 1 1 1 1 1 1 1 
1 1 1 1 1 1 1 1 1 
1 1 1 1 1 1 1 1 1 
1 1 1 1 1 1 1 1 1 
1 1 1 1 1 1 1 1 1 
1 1 1 1 1 1 1 1 1 
1 1 1 1 1 1 1 1 1 
1 1 1 1 1 1 1 1 1 
1 1 1 1 1 1 1 1 1 
1 1 1 1 1 1 1 1 1 
1 1 1 1 1 1 1 1 1 
1 1 1 1 1 1 1 1 1 
1 1 1 1 1 1 1 1 1 
1 1 1 1 1 1 1 1 1 
1 1 1 1 1 1 1 1 1 
1 1 1 1 1 1 1 1 1 
1 1 1 1 1 1 1 1 1 
1 1 1 1 1 1 1 1 1 
1 1 1 1 1 1 1 1 1 
1 1 1 1 1 1 1 1 1 
1 1 1 1 1 1 1 1 1 
1 1 1 1 1 1 1 1 1 
1 1 1 1 1 1 1 1 1 
1 1 1 1 1 1 1 1 1 
1 1 1 1 1 1 1 1 1 
1 1 1 1 1 1 1 1 1 
1 1 1 1 1 1 1 1 1 
1 1 1 1 1 1 1 1 1 
1 1 1 1 1 1 1 1 1 
1 1 1 1 1 1 1 1 1 
1 1 1 1 1 1 1 1 1 
1 1 1 1 1 1 1 1 1 
1 1 1 1 1 1 1 1 1 
1 1 1 1 1 1 1 1 1 
1 1 1 1 1 1 1 1 1 
1 1 1 1 1 1 1 1 1 
1 1 1 1 1 1 1 1 1 
1 1 1 1 1 1 1 1 1 
1 1 1 1 1 1 1 1 1 
1 1 1 1 1 1 1 1 1 
1 1 1 1 1 1 1 1 1 
1 1 1 1 1 1 1 1 1 
1 1 1 1 1 1 1 1 1 
1 1 1 1 1 1 1 1 1 
1 1 1 1 1 1 1 1 1 
1 1 1 1 1 1 1 1 1 
1 1 1 1 1 1 1 1 1 
1 1 1 1 1 1 1 1 1 
1 1 1 1 1 1 1 1 1 
1 1 1 1 1 1 1 1 1 
1 1 1 1 1 1 1 1 1 
1 1 1 1 1 1 1 1 1 
1 1 1 1 1 1 1 1 1 
1 1 1 1 1 1 1 1 1 
1 1 1 1 1 1 1 1 1 
1 1 1 1 1 1 1 1 1 
1 1 1 1 1 1 1 1 1 
1 1 1 1 1 1 1 1 1 
1 1 1 1 1 1 1 1 1 
1 1 1 1 1 1 1 1 1 
1 1 1 1 1 1 1 1 1 
1 1 1 1 1 1 1 1 1 
1 1 1 1 1 1 1 1 1 
1 1 1 1 1 1 1 1 1 
1 1 1 1 1 1 1 1 1 
1 1 1 1 1 1 1 1 1 
1 1 1 1 1 1 1 1 1 
1 1 1 1 1 1 1 1 1 
1 1 1 1 1 1 1 1 1 
1 1 1 1 1 1 1 1 1 
1 1 1 1 1 1 1 1 1 
1 1 1 1 1 1 1 1 1 
1 1 1 1 1 1 1 1 1 
1 1 1 1 1 1 1 1 1 
1 1 1 1 1 1 1 1 1 
1 1 1 1 1 1 1 1 1 
1 1 1 1 1 1 1 1 1 
1 1 1 1 1 1 1 1 1 
1 1 1 1 1 1 1 1 1 
1 1 1 1 1 1 1 1 1 
1 1 1 1 1 1 1 1 1 
1 1 1 1 1 1 1 1 1 
1 1 1 1 1 1 1 1 1 
1 1 1 1 1 1 1 1 1 
1 1 1 1 1 1 1 1 1 
1 1 1 1 1 1 1 1 1 
1 1 1 1 1 1 1 1 1 
1 1 1 1 1 1 1 1 1 
1 1 1 1 1 1 1 1 1 
1 1 1 1 1 1 1 1 1 
1 1 1 1 1 1 1 1 1 
1 1 1 1 1 1 1 1 1 
1 1 1 1 1 1 1 1 1 
1 1 1 1 1 1 1 1 1 
1 1 1 1 1 1 1 1 1 
1 1 1 1 1 1 1 1 1 
1 1 1 1 1 1 1 1 1 
1 1 1 1 1 1 1 1 1 
1 1 1 1 1 1 1 1 1 
1 1 1 1 1 1 1 1 1 
1 1 1 1 1 1 1 1 1 
1 1 1 1 1 1 1 1 1 
1 1 1 1 1 1 1 1 1 
1 1 1 1 1 1 1 1 1 
1 1 1 1 1 1 1 1 1 
1 1 1 1 1 1 1 1 1 
1 1 1 1 1 1 1 1 1 
1 1 1 1 1 1 1 1 1 
1 1 1 1 1 1 1 1 1 
1 1 1 1 1 1 1 1 1 
1 1 1 1 1 1 1 1 1 
1 1 1 1 1 1 1 1 1 
1 1 1 1 1 1 1 1 1 
1 1 1 1 1 1 1 1 1 
1 1 1 1 1 1 1 1 1 
1 1 1 1 1 1 1 1 1 
1 1 1 1 1 1 1 1 1 
1 1 1 1 1 1 1 1 1 
1 1 1 1 1 1 1 1 1 
1 1 1 1 1 1 1 1 1 
1 1 1 1 1 1 1 1 1 
1 1 1 1 1 1 1 1 1 
1 1 1 1 1 1 1 1 1 
1 1 1 1 1 1 1 1 1 
1 1 1 1 1 1 1 1 1 
1 1 1 1 1 1 1 1 1 
1 1 1 1 1 1 1 1 1 
1 1 1 1 1 1 1 1 1 
1 1 1 1 1 1 1 1 1 
1 1 1 1 1 1 1 1 1 
1 1 1 1 1 1 1 1 1 
1 1 1 1 1 1 1 1 1 
1 1 1 1 1 1 1 1 1 
1 1 1 1 1 1 1 1 1 
1 1 1 1 1 1 1 1 1 
1 1 1 1 1 1 1 1 1 
1 1 1 1 1 1 1 1 1 
1 1 1 1 1 1 1 1 1 
1 1 1 1 1 1 1 1 1 
1 1 1 1 1 1 1 1 1 
1 1 1 1 1 1 1 1 1 
1 1 1 1 1 1 1 1 1 
1 1 1 1 1 1 1 1 1 
1 1 1 1 1 1 1 1 1 
1 1 1 1 1 1 1 1 1 
1 1 1 1 1 1 1 1 1 
1 1 1 1 1 1 1 1 1 
1 1 1 1 1 1 1 1 1 
1 1 1 1 1 1 1 1 1 
1 1 1 1 1 1 1 1 1 
1 1 1 1 1 1 1 1 1 
1 1 1 1 1 1 1 1 1 
1 1 1 1 1 1 1 1 1 
1 1 1 1 1 1 1 1 1 
1 1 1 1 1 1 1 1 1 
1 1 1 1 1 1 1 1 1 
1 1 1 1 1 1 1 1 1 
1 1 1 1 1 1 1 1 1 
1 1 1 1 1 1 1 1 1 
1 1 1 1 1 1 1 1 1 
1 1 1 1 1 1 1 1 1 
1 1 1 1 1 1 1 1 1 
1 1 1 1 1 1 1 1 1 
1 1 1 1 1 1 1 1 1 
1 1 1 1 1 1 1 1 1 
1 1 1 1 1 1 1 
NORMALS normals float
0 0 -1 0 -0.696146 -0.7179 -0.999512 0 -0.0312348 
0.696146 0 -0.7179 0 0.696146 -0.7179 0 -0.0302891 -0.999541 
0 -0.707107 -0.707107 -0.695981 -0.0217494 -0.717731 0.695981 -0.0217494 -0.717731 
0 0 -1 -0.696146 0 -0.7179 0.696146 0 -0.7179 
0 0 -1 -0.696146 0 -0.7179 0.571337 -0.571337 -0.589192 
-0.0302752 0.0302752 -0.999083 -0.706945 0.0214226 -0.706945 0.571337 -0.571337 -0.589192 
0 0 -1 0.0302752 -0.0302752 -0.999083 0.0214226 -0.706945 -0.706945 
0.706945 -0.0214226 -0.706945 -0.0214226 0.706945 -0.706945 -0.571337 0.571337 -0.589192 
-0.571337 0.571337 -0.589192 0 0 -1 0.696146 0 -0.7179 
0 0 -1 -0.696146 0 -0.7179 0.696146 0 -0.7179 
0 0 -1 -0.696146 0 -0.7179 0.696146 0 -0.7179 
0 0 -1 -0.696146 0 -0.7179 0.696146 0 -0.7179 
0 0 -1 -0.696146 0 -0.7179 0.571337 -0.571337 -0.589192 
-0.0302752 0.0302752 -0.999083 -0.706945 0.0214226 -0.706945 0.571337 -0.571337 -0.589192 
0 0 -1 0.0302752 -0.0302752 -0.999083 0.0214226 -0.706945 -0.706945 
0.706945 -0.0214226 -0.706945 -0.0214226 0.706945 -0.706945 -0.571337 0.571337 -0.589192 
-0.571337 0.571337 -0.589192 0 0 -1 0.696146 0 -0.7179 
0 0.0302891 -0.999541 -0.695981 0.0217494 -0.717731 0.695981 0.0217494 -0.717731 
0 0.707107 -0.707107 0 -0.0302891 -0.999541 0 -0.999541 -0.0302891 
-0.695981 -0.0217494 -0.717731 0.695981 -0.0217494 -0.717731 0 0 -1 
-0.696146 0 -0.7179 0.696146 0 -0.7179 0 0 -1 
-0.696146 0 -0.7179 0.696146 0 -0.7179 0 0 -1 
-0.696146 0 -0.7179 0.696146 0 -0.7179 0 0 -1 
-0.696146 0 -0.7179 0.696146 0 -0.7179 0 0 -1 
-0.696146 0 -0.7179 0.696146 0 -0.7179 0 0 -1 
-0.696146 0 -0.7179 0.696146 0 -0.7179 0 0 -1 
-0.696146 0 -0.7179 0.696146 0 -0.7179 0 0 -1 
-0.696146 0 -0.7179 0.696146 0 -0.7179 0 0 -1 
-0.696146 0 -0.7179 0.696146 0 -0.7179 0 0 -1 
-0.696146 0 -0.7179 0.696146 0 -0.7179 0 0 -1 
-0.696146 0 -0.7179 0.696146 0 -0.7179 0 0 -1 
-0.696146 0 -0.7179 0.696146 0 -0.7179 0 0 -1 
-0.696146 0 -0.7179 0.696146 0 -0.7179 0 0 -1 
-0.696146 0 -0.7179 0.696146 0 -0.7179 0 0 -1 
-0.696146 0 -0.7179 0.696146 0 -0.7179 0 0 -1 
-0.696146 0 -0.7179 0.696146 0 -0.7179 0 0 -1 
-0.696146 0 -0.7179 0.696146 0 -0.7179 0 0 -1 
-0.696146 0 -0.7179 0.696146 0 -0.7179 0 0 -1 
-0.696146 0 -0.7179 0.696146 0 -0.7179 0 0 -1 
-0.696146 0 -0.7179 0.696146 0 -0.7179 0 0 -1 
-0.696146 0 -0.7179 0.696146 0 -0.7179 0 0 -1 
-0.696146 0 -0.7179 0.696146 0 -0.7179 0 0 -1 
-0.696146 0 -0.7179 0.696146 0 -0.7179 0 0 -1 
-0.571337 -0.571337 -0.589192 0.696146 0 -0.7179 -0.0302752 -0.0302752 -0.999083 
-0.0214226 -0.706945 -0.706945 -0.706945 -0.0214226 -0.706945 0 0 -1 
-0.571337 -0.571337 -0.589192 0.0302891 0 -0.999541 0.707107 0 -0.707107 
0 0 -1 -0.571337 -0.571337 -0.589192 0 0.696146 -0.7179 
0 0.696146 -0.7179 0 0.696146 -0.7179 0 0 -1 
0.571337 -0.571337 -0.589192 -0.0302752 -0.0302752 -0.999083 -0.0214226 -0.706945 -0.706945 
-0.706945 -0.0214226 -0.706945 0 0 -1 -0.571337 -0.571337 -0.589192 
0.0302752 0.0302752 -0.999083 0.0302752 0.0302752 -0.999083 -0.0302752 0.0302752 -0.999083 
-0.0302752 0.0302752 -0.999083 0.583181 -0.565509 -0.583181 0.0302891 0 -0.999541 
0.707107 0 -0.707107 0 0 -1 -0.571337 -0.571337 -0.589192 
0.571337 0.571337 -0.589192 0.571337 0.571337 -0.589192 0.0214226 0.706945 -0.706945 
-0.0214226 0.706945 -0.706945 0.0217494 0.695981 -0.717731 -0.0302752 -0.0302752 -0.999083 
-0.0214226 -0.706945 -0.706945 -0.706945 -0.0214226 -0.706945 0 0 -1 
-0.571337 -0.571337 -0.589192 0.0302752 0.0302752 -0.999083 0.706945 0.0214226 -0.706945 
0 0 -1 -0.571337 -0.571337 -0.589192 0.571337 0.571337 -0.589192 
0.571337 0.571337 -0.589192 0.0214226 0.706945 -0.706945 -0.0302891 0 -0.999541 
-0.583181 -0.565509 -0.583181 -0.999541 0 -0.0302891 0.0302752 0.0302752 -0.999083 
0.706945 0.0214226 -0.706945 -0.0217494 0.695981 -0.717731 0.0214226 0.706945 -0.706945 
-0.0302891 0 -0.999541 -0.0217494 -0.695981 -0.717731 -0.707107 0 -0.707107 
0.0302752 -0.0302752 -0.999083 0.0214226 -0.706945 -0.706945 0.706945 -0.0214226 -0.706945 
-0.583181 0.565509 -0.583181 -0.571337 0.571337 -0.589192 0 0 -1 
0.696146 0 -0.7179 0 0 -1 -0.696146 0 -0.7179 
0.696146 0 -0.7179 0 0 -1 -0.696146 0 -0.7179 
0.696146 0 -0.7179 0 0 -1 -0.696146 0 -0.7179 
0.696146 0 -0.7179 0 0 -1 -0.696146 0 -0.7179 
0.696146 0 -0.7179 0 0 -1 -0.696146 0 -0.7179 
0.696146 0 -0.7179 0 0 -1 -0.571337 -0.571337 -0.589192 
0.696146 0 -0.7179 -0.0302752 -0.0302752 -0.999083 -0.0214226 -0.706945 -0.706945 
-0.706945 -0.0214226 -0.706945 0 0 -1 -0.571337 -0.571337 -0.589192 
0.0302752 0.0302752 -0.999083 0.706945 0.0214226 -0.706945 0 0 -1 
-0.571337 -0.571337 -0.589192 0.571337 0.571337 -0.589192 0.571337 0.571337 -0.589192 
0.0214226 0.706945 -0.706945 -0.0302891 0 -0.999541 -0.583181 -0.565509 -0.583181 
-0.999541 0 -0.0302891 0.0302752 0.0302752 -0.999083 0.706945 0.0214226 -0.706945 
-0.0217494 0.695981 -0.717731 0.0214226 0.706945 -0.706945 0 -0.0302891 -0.999541 
0 -0.707107 -0.707107 -0.695981 -0.0217494 -0.717731 0.695981 -0.0217494 -0.717731 
0 0 -1 -0.696146 0 -0.7179 0.696146 0 -0.7179 
0 0 -1 -0.696146 0 -0.7179 0.696146 0 -0.7179 
0 0 -1 -0.696146 0 -0.7179 0.696146 0 -0.7179 
0 0 -1 -0.696146 0 -0.7179 0.696146 0 -0.7179 
0 0 -1 -0.696146 0 -0.7179 0.696146 0 -0.7179 
0 0.0302891 -0.999541 -0.695981 0.0217494 -0.717731 0.695981 0.0217494 -0.717731 
0 0.707107 -0.707107 0 -0.0302891 -0.999541 0 -0.707107 -0.707107 
-0.695981 -0.0217494 -0.717731 0.999025 -0.0312195 -0.0312195 0 0.0302891 -0.999541 
-0.695981 0.0217494 -0.717731 0.695981 0.0217494 -0.717731 0 0.707107 -0.707107 
-0.0214226 -0.706945 -0.706945 -0.0302752 -0.999083 -0.0302752 -0.999083 -0.0302752 -0.0302752 
0.0312195 -0.0312195 -0.999025 0.0302891 -0.999541 0 0.999541 -0.0302891 0 
-1 0 0 0.7179 0 -0.696146 1 0 0 
-0.0217494 0.695981 -0.717731 -0.717731 -0.695981 -0.0217494 0.0312348 0 -0.999512 