# vtk DataFile Version 3.0
vtk output
ASCII
DATASET POLYDATA
POINTS 1984 float
94 84 76.0278 94 83.0278 77 93.0278 84 77 
94.9722 84 77 94 85 76.0278 93.0278 85 77 
94.9722 85 77 94 86 76.0278 93.0278 86 77 
94.9722 86 77 94 86.9722 77 95 86.0278 77 
94.0278 87 77 95 87 76.0278 95.9722 87 77 
95 87.9722 77 93 82 77.0278 93 81.0278 78 
92.0278 82 78 94 82 77.0278 94 81.0278 78 
94.9722 82 78 93 83 77.0278 92.0278 83 78 
94 83 77.0278 94.9722 83 78 93 84 77.0278 
92.0278 84 78 95 84 77.0278 95 83.0278 78 
96 84 77.0278 96 83.0278 78 96.9722 84 78 
93 85 77.0278 92.0278 85 78 95 85 77.0278 
96 85 77.0278 96.9722 85 78 93 86 77.0278 
92.0278 86 78 95 86 77.0278 96 86 77.0278 
96.9722 86 78 93 87 77.0278 92.0278 87 78 
94 87 77.0278 96 87 77.0278 96.9722 87 78 
93 87.9722 78 94 87.9722 78 95 88 77.0278 
94.0278 88 78 96 88 77.0278 96.9722 88 78 
95 89 77.0278 94.0278 89 78 95.9722 89 78 
96 88.9722 78 95 89.9722 78 101 90 77.0278 
101 89.0278 78 100.028 90 78 102 90 77.0278 
102 89.0278 78 102.972 90 78 101 91 77.0278 
100.028 91 78 102 91 77.0278 102.972 91 78 
101 91.9722 78 102 91.9722 78 93 81.0278 79 
92.0278 82 79 94 81.0278 79 94.9722 82 79 
92 83 78.0278 92 82.0278 79 91.0278 83 79 
94.9722 83 79 92 84 78.0278 91.0278 84 79 
95 83.0278 79 96 83.0278 79 96.9722 84 79 
100 84 78.0278 100 83.0278 79 99.0278 84 79 
100.972 84 79 92 85 78.0278 91.0278 85 79 
97 84.0278 79 97 85 78.0278 98 85 78.0278 
98 84.0278 79 99 85 78.0278 99 84.0278 79 
100 85 78.0278 100.972 85 79 92 86 78.0278 
91.0278 86 79 96.9722 86 79 97 85.9722 79 
98 85.9722 79 99 85.9722 79 100 85.9722 79 
92 86.9722 79 92.0278 87 79 96.9722 87 79 
93 87.9722 79 94 88 78.0278 93.0278 88 79 
96.9722 88 79 94 88.9722 79 94.0278 89 79 
95.9722 89 79 96 88.9722 79 95 89.9722 79 
101 89.0278 79 100.028 90 79 102 90 78.9722 
101.972 90 79 101 90.9722 79 101 91 78.9722 
102 91 78.9722 93 81.0278 80 92.0278 82 80 
94 81.0278 80 94.9722 82 80 92 82.0278 80 
91.0278 83 80 94.9722 83 80 91 84 79.0278 
91 83.0278 80 90.0278 84 80 95 83.0278 80 
96 83.0278 80 97 84 79.0278 97 83.0278 80 
98 84 79.0278 98 83.0278 80 99 84 79.0278 
99 83.0278 80 100 83.0278 80 101 84 79.0278 
101 83.0278 80 102 84 79.0278 102 83.0278 80 
102.972 84 80 91 85 79.0278 90.0278 85 80 
101 85 79.0278 102 85 79.0278 102.972 85 80 
91 86 79.0278 90.0278 86 80 97 86 79.0278 
98 86 79.0278 99 86 79.0278 100 86 79.0278 
101 86 79.0278 102 86 79.0278 103 85.0278 80 
103 86 79.0278 104 86 79.0278 104 85.0278 80 
104.972 86 80 91 87 79.0278 90.0278 87 80 
92 87 79.0278 97 87 79.0278 98 87 79.0278 
99 87 79.0278 100 87 79.0278 101 87 79.0278 
102 87 79.0278 103 87 79.0278 103.972 87 80 
104 86.9722 80 91 87.9722 80 92 87.9722 80 
93 88 79.0278 92.0278 88 80 97 88 79.0278 
98 88 79.0278 99 88 79.0278 100 88 79.0278 
100.972 88 80 101 87.9722 80 102 87.9722 80 
103 87.9722 80 93 89 79.0278 92.0278 89 80 
94 89 79.0278 96 89 79.0278 97 89 79.0278 
98 89 79.0278 99 89 79.0278 99.9722 89 80 
100 88.9722 80 93 89.9722 80 94 89.9722 80 
95 89.9722 80 96 89.9722 80 97 89.9722 80 
98 89.9722 80 99 89.9722 80 101 90 79.9722 
93 81 80.0278 93 80.0278 81 92.0278 81 81 
94 81 80.0278 94 80.0278 81 94.9722 81 81 
92 82 80.0278 92 81.0278 81 91.0278 82 81 
94.9722 82 81 91 83 80.0278 91 82.0278 81 
90.0278 83 81 95 82.0278 81 95 83 80.0278 
96 83 80.0278 96 82.0278 81 96.9722 83 81 
90.0278 84 81 97 83.0278 81 98 83.0278 81 
99 83.0278 81 100 83.0278 81 101 83.0278 81 
102 83.0278 81 102.972 84 81 90.0278 85 81 
103 84.0278 81 103 85 80.0278 104 85 80.0278 
104 84.0278 81 104.972 85 81 90.0278 86 81 
104.972 86 81 90.0278 87 81 103.972 87 81 
104 86.9722 81 91 87.9722 81 92 87.9722 81 
92.0278 88 81 100.972 88 81 101 87.9722 81 
102 87.9722 81 103 87.9722 81 92.0278 89 81 
99.9722 89 81 100 88.9722 81 93 89.9722 81 
94 89.9722 81 95 89.9722 81 96 89.9722 81 
97 89.9722 81 98 89.9722 81 99 89.9722 81 
93 80 81.0278 93 79.0278 82 92.0278 80 82 
94 80 81.0278 94 79.0278 82 94.9722 80 82 
92 81 81.0278 92 80.0278 82 91.0278 81 82 
94.9722 81 82 91 82 81.0278 91 81.0278 82 
90.0278 82 82 95 81.0278 82 95 82 81.0278 
96 82 81.0278 96 81.0278 82 96.9722 82 82 
90.0278 83 82 96.9722 83 82 90.0278 84 82 
97 83.0278 82 98 83.0278 82 99 83.0278 82 
100 83.0278 82 101 83.0278 82 102 83.0278 82 
103 84 81.0278 103 83.0278 82 104 84 81.0278 
104 83.0278 82 105 84 81.0278 105 83.0278 82 
106 84 81.0278 106 83.0278 82 106.972 84 82 
90.0278 85 82 105 85 81.0278 105.972 85 82 
106 84.9722 82 90.0278 86 82 104.972 86 82 
105 85.9722 82 90.0278 87 82 103.972 87 82 
104 86.9722 82 91 87.9722 82 92 87.9722 82 
92.0278 88 82 100.972 88 82 101 87.9722 82 
102 87.9722 82 103 87.9722 82 92.0278 89 82 
100 89 81.0278 100.972 89 82 93 89.9722 82 
94 89.9722 82 95 90 81.0278 94.0278 90 82 
96 90 81.0278 97 90 81.0278 98 90 81.0278 
99 90 81.0278 100 90 81.0278 100.972 90 82 
95 91 81.0278 94.0278 91 82 96 91 81.0278 
97 91 81.0278 98 91 81.0278 99 91 81.0278 
99.9722 91 82 100 90.9722 82 95 91.9722 82 
96 91.9722 82 97 91.9722 82 98 91.9722 82 
99 91.9722 82 93 79.0278 83 92.0278 80 83 
94 79.0278 83 94.9722 80 83 92 80.0278 83 
91.0278 81 83 94.9722 81 83 91 81.0278 83 
90.0278 82 83 95 81.0278 83 96 81.0278 83 
96.9722 82 83 90.0278 83 83 97 82.0278 83 
97 83 82.0278 98 83 82.0278 98 82.0278 83 
98.9722 83 83 90.0278 84 83 99 83.0278 83 
100 83.0278 83 101 83.0278 83 102 83.0278 83 
103 83.0278 83 104 83.0278 83 105 83.0278 83 
106 84 82.9722 105.972 84 83 90.0278 85 83 
105 85 82.9722 104.972 85 83 105 84.9722 83 
90.0278 86 83 104.972 86 83 90.0278 87 83 
103.972 87 83 104 86.9722 83 91 87.9722 83 
92 87.9722 83 92.0278 88 83 100.972 88 83 
101 87.9722 83 102 87.9722 83 103 87.9722 83 
92.0278 89 83 100.972 89 83 93 89.9722 83 
94 89.9722 83 94.0278 90 83 100.972 90 83 
94.0278 91 83 99.9722 91 83 100 90.9722 83 
95 91.9722 83 96 91.9722 83 97 91.9722 83 
98 91.9722 83 99 91.9722 83 93 79.0278 84 
92.0278 80 84 94 79.0278 84 94.9722 80 84 
92 80.0278 84 91.0278 81 84 94.9722 81 84 
91 81.0278 84 90.0278 82 84 95 81.0278 84 
96 81.0278 84 97 82 83.0278 97 81.0278 84 
98 82 83.0278 98 81.0278 84 98.9722 82 84 
90.0278 83 84 98.9722 83 84 90.0278 84 84 
99 83.0278 84 100 83.0278 84 101 83.0278 84 
102 83.0278 84 103 83.0278 84 104 83.0278 84 
105 84 83.9722 104.972 84 84 90.0278 85 84 
104.972 85 84 90.0278 86 84 104.972 86 84 
90.0278 87 84 104 87 83.0278 104.972 87 84 
91 87.9722 84 92 87.9722 84 92.0278 88 84 
101 88 83.0278 102 88 83.0278 103 88 83.0278 
104 88 83.0278 104.972 88 84 92.0278 89 84 
101 89 83.0278 102 89 83.0278 103 89 83.0278 
103.972 89 84 104 88.9722 84 93 89.9722 84 
94 89.9722 84 94.0278 90 84 100.972 90 84 
101 89.9722 84 102 89.9722 84 103 89.9722 84 
94.0278 91 84 99.9722 91 84 100 90.9722 84 
95 91.9722 84 96 91.9722 84 97 91.9722 84 
98 91.9722 84 99 91.9722 84 93 79.0278 85 
92.0278 80 85 94 80 84.9722 93.9722 80 85 
92 80.0278 85 91.0278 81 85 94 80.0278 85 
94.9722 81 85 91 81.0278 85 90.0278 82 85 
95 81.0278 85 96 81.0278 85 97 81.0278 85 
98 81.0278 85 98.9722 82 85 90.0278 83 85 
99 82.0278 85 99 83 84.0278 100 83 84.0278 
100 82.0278 85 101 83 84.0278 101 82.0278 85 
102 83 84.0278 102 82.0278 85 102.972 83 85 
90.0278 84 85 103 83.0278 85 104 84 84.9722 
103.972 84 85 90.0278 85 85 104 85 84.9722 
103.972 85 85 90.0278 86 85 104 86 84.9722 
103.972 86 85 90.0278 87 85 104 87 84.9722 
103.972 87 85 91 87.9722 85 92 87.9722 85 
92.0278 88 85 104 88 84.9722 103.972 88 85 
92.0278 89 85 102 89 84.9722 101.972 89 85 
102 88.9722 85 103 88.9722 85 103 89 84.9722 
93 89.9722 85 94 89.9722 85 94.0278 90 85 
100 90 84.9722 99.9722 90 85 100 89.9722 85 
101 89.9722 85 95 90.9722 85 95 91 84.9722 
96 90.9722 85 96 91 84.9722 97 90.9722 85 
97 91 84.9722 98 90.9722 85 98 91 84.9722 
99 90.9722 85 99 91 84.9722 93 80 85.9722 
92 80.0278 86 91.0278 81 86 93 81 85.9722 
92.9722 81 86 94 81 85.9722 91 81.0278 86 
90.0278 82 86 93 81.0278 86 94 81.0278 86 
95 82 85.9722 94.9722 82 86 96 82 85.9722 
97 82 85.9722 98 82 85.9722 99 82 85.0278 
99 81.0278 86 98.0278 82 86 100 82 85.0278 
100 81.0278 86 101 82 85.0278 101 81.0278 86 
102 82 85.0278 102 81.0278 86 102.972 82 86 
90.0278 83 86 95 83 85.9722 94.9722 83 86 
96 83 85.9722 97 83 85.9722 97.0278 83 86 
98 82.0278 86 102.972 83 86 90.0278 84 86 
95 83.0278 86 96 83.0278 86 97 83.0278 86 
103 84 85.9722 102.972 84 86 90.0278 85 86 
103 85 85.9722 102.972 85 86 90.0278 86 86 
103 86 85.9722 102.972 86 86 90.0278 87 86 
103 87 85.9722 102.972 87 86 91 87.9722 86 
92 87.9722 86 92.0278 88 86 103 88 85.9722 
102.972 88 86 92.0278 89 86 101.972 89 86 
102 88.9722 86 93 89.9722 86 94 89.9722 86 
95 89.9722 86 95 90 85.9722 96 89.9722 86 
96 90 85.9722 97 89.9722 86 97 90 85.9722 
98 89.9722 86 98 90 85.9722 99 89.9722 86 
99 90 85.9722 100 89.9722 86 101 89.9722 86 
92 80.0278 87 91.0278 81 87 92.9722 81 87 
91 81.0278 87 90.0278 82 87 93 81.0278 87 
94 81.0278 87 94.9722 82 87 99 81.0278 87 
98.0278 82 87 100 81.0278 87 101 81.0278 87 
102 81.0278 87 102.972 82 87 90.0278 83 87 
94.9722 83 87 98 82.0278 87 97.0278 83 87 
102.972 83 87 90.0278 84 87 95 83.0278 87 
96 83.0278 87 97 83.0278 87 102.972 84 87 
90.0278 85 87 102.972 85 87 90.0278 86 87 
102.972 86 87 90.0278 87 87 102 87 86.9722 
101.972 87 87 102 86.9722 87 91 87.9722 87 
92 87.9722 87 92.0278 88 87 102 88 86.9722 
101.972 88 87 92.0278 89 87 98 89 86.9722 
97.9722 89 87 98 88.9722 87 99 88.9722 87 
99 89 86.9722 100 88.9722 87 100 89 86.9722 
101 88.9722 87 101 89 86.9722 93 89.9722 87 
94 89.9722 87 95 89.9722 87 96 89.9722 87 
97 89.9722 87 103 80 87.0278 103 79.0278 88 
102.028 80 88 104 80 87.0278 104 79.0278 88 
104.972 80 88 92 80.0278 88 91.0278 81 88 
92.9722 81 88 102 81 87.0278 102 80.0278 88 
101.028 81 88 103 81 87.0278 104 81 87.0278 
104.972 81 88 91 81.0278 88 90.0278 82 88 
93 81.0278 88 94 81.0278 88 94.9722 82 88 
99 81.0278 88 98.0278 82 88 100 81.0278 88 
101 81.0278 88 103 82 87.0278 104 82 87.0278 
104.972 82 88 90.0278 83 88 94.9722 83 88 
[...]
POINT_DATA 1984
SCALARS scalars float
LOOKUP_TABLE default
1 1 1 1 1 1 1 1 1 
1 1 1 1 1 1 1 1 1 
1 1 1 1 1 1 1 1 1 
1 1 1 1 1 1 1 1 1 
1 1 1 1 1 1 1 1 1 
1 1 1 1 1 1 1 1 1 
1 1 1 1 1 1 1 1 1 
1 1 1 1 1 1 1 1 1 
1 1 1 1 1 1 1 1 1 
1 1 1 1 1 1 1 1 1 
1 1 1 1 1 1 1 1 1 
1 1 1 1 1 1 1 1 1 
1 1 1 1 1 1 1 1 1 
1 1 1 1 1 1 1 1 1 
1 1 1 1 1 1 1 1 1 
1 1 1 1 1 1 1 1 1 
1 1 1 1 1 1 1 1 1 
1 1 1 1 1 1 1 1 1 
1 1 1 1 1 1 1 1 1 
1 1 1 1 1 1 1 1 1 
1 1 1 1 1 1 1 1 1 
1 1 1 1 1 1 1 1 1 
1 1 1 1 1 1 1 1 1 
1 1 1 1 1 1 1 1 1 
1 1 1 1 1 1 1 1 1 
1 1 1 1 1 1 1 1 1 
1 1 1 1 1 1 1 1 1 
1 1 1 1 1 1 1 1 1 
1 1 1 1 1 1 1 1 1 
1 1 1 1 1 1 1 1 1 
1 1 1 1 1 1 1 1 1 
1 1 1 1 1 1 1 1 1 
1 1 1 1 1 1 1 1 1 
1 1 1 1 1 1 1 1 1 
1 1 1 1 1 1 1 1 1 
1 1 1 1 1 1 1 1 1 
1 1 1 1 1 1 1 1 1 
1 1 1 1 1 1 1 1 1 
1 1 1 1 1 1 1 1 1 
1 1 1 1 1 1 1 1 1 
1 1 1 1 1 1 1 1 1 
1 1 1 1 1 1 1 1 1 
1 1 1 1 1 1 1 1 1 
1 1 1 1 1 1 1 1 1 
1 1 1 1 1 1 1 1 1 
1 1 1 1 1 1 1 1 1 
1 1 1 1 1 1 1 1 1 
1 1 1 1 1 1 1 1 1 
1 1 1 1 1 1 1 1 1 
1 1 1 1 1 1 1 1 1 
1 1 1 1 1 1 1 1 1 
1 1 1 1 1 1 1 1 1 
1 1 1 1 1 1 1 1 1 
1 1 1 1 1 1 1 1 1 
1 1 1 1 1 1 1 1 1 
1 1 1 1 1 1 1 1 1 
1 1 1 1 1 1 1 1 1 
1 1 1 1 1 1 1 1 1 
1 1 1 1 1 1 1 1 1 
1 1 1 1 1 1 1 1 1 
1 1 1 1 1 1 1 1 1 
1 1 1 1 1 1 1 1 1 
1 1 1 1 1 1 1 1 1 
1 1 1 1 1 1 1 1 1 
1 1 1 1 1 1 1 1 1 
1 1 1 1 1 1 1 1 1 
1 1 1 1 1 1 1 1 1 
1 1 1 1 1 1 1 1 1 
1 1 1 1 1 1 1 1 1 
1 1 1 1 1 1 1 1 1 
1 1 1 1 1 1 1 1 1 
1 1 1 1 1 1 1 1 1 
1 1 1 1 1 1 1 1 1 
1 1 1 1 1 1 1 1 1 
1 1 1 1 1 1 1 1 1 
1 1 1 1 1 1 1 1 1 
1 1 1 1 1 1 1 1 1 
1 1 1 1 1 1 1 1 1 
1 1 1 1 1 1 1 1 1 
1 1 1 1 1 1 1 1 1 
1 1 1 1 1 1 1 1 1 
1 1 1 1 1 1 1 1 1 
1 1 1 1 1 1 1 1 1 
1 1 1 1 1 1 1 1 1 
1 1 1 1 1 1 1 1 1 
1 1 1 1 1 1 1 1 1 
1 1 1 1 1 1 1 1 1 
1 1 1 1 1 1 1 1 1 
1 1 1 1 1 1 1 1 1 
1 1 1 1 1 1 1 1 1 
1 1 1 1 1 1 1 1 1 
1 1 1 1 1 1 1 1 1 
1 1 1 1 1 1 1 1 1 
1 1 1 1 1 1 1 1 1 
1 1 1 1 1 1 1 1 1 
1 1 1 1 1 1 1 1 1 
1 1 1 1 1 1 1 1 1 
1 1 1 1 1 1 1 1 1 
1 1 1 1 1 1 1 1 1 
1 1 1 1 1 1 1 1 1 
1 1 1 1 1 1 1 1 1 
1 1 1 1 1 1 1 1 1 
1 1 1 1 1 1 1 1 1 
1 1 1 1 1 1 1 1 1 
1 1 1 1 1 1 1 1 1 
1 1 1 1 1 1 1 1 1 
1 1 1 1 1 1 1 1 1 
1 1 1 1 1 1 1 1 1 
1 1 1 1 1 1 1 1 1 
1 1 1 1 1 1 1 1 1 
1 1 1 1 1 1 1 1 1 
1 1 1 1 1 1 1 1 1 
1 1 1 1 1 1 1 1 1 
1 1 1 1 1 1 1 1 1 
1 1 1 1 1 1 1 1 1 
1 1 1 1 1 1 1 1 1 
1 1 1 1 1 1 1 1 1 
1 1 1 1 1 1 1 1 1 
1 1 1 1 1 1 1 1 1 
1 1 1 1 1 1 1 1 1 
1 1 1 1 1 1 1 1 1 
1 1 1 1 1 1 1 1 1 
1 1 1 1 1 1 1 1 1 
1 1 1 1 1 1 1 1 1 
1 1 1 1 1 1 1 1 1 
1 1 1 1 1 1 1 1 1 
1 1 1 1 1 1 1 1 1 
1 1 1 1 1 1 1 1 1 
1 1 1 1 1 1 1 1 1 
1 1 1 1 1 1 1 1 1 
1 1 1 1 1 1 1 1 1 
1 1 1 1 1 1 1 1 1 
1 1 1 1 1 1 1 1 1 
1 1 1 1 1 1 1 1 1 
1 1 1 1 1 1 1 1 1 
1 1 1 1 1 1 1 1 1 
1 1 1 1 1 1 1 1 1 
1 1 1 1 1 1 1 1 1 
1 1 1 1 1 1 1 1 1 
1 1 1 1 1 1 1 1 1 
1 1 1 1 1 1 1 1 1 
1 1 1 1 1 1 1 1 1 
1 1 1 1 1 1 1 1 1 
1 1 1 1 1 1 1 1 1 
1 1 1 1 1 1 1 1 1 
1 1 1 1 1 1 1 1 1 
1 1 1 1 1 1 1 1 1 
1 1 1 1 1 1 1 1 1 
1 1 1 1 1 1 1 1 1 
1 1 1 1 1 1 1 1 1 
1 1 1 1 1 1 1 1 1 
1 1 1 1 1 1 1 1 1 
1 1 1 1 1 1 1 1 1 
1 1 1 1 1 1 1 1 1 
1 1 1 1 1 1 1 1 1 
1 1 1 1 1 1 1 1 1 
1 1 1 1 1 1 1 1 1 
1 1 1 1 1 1 1 1 1 
1 1 1 1 1 1 1 1 1 
1 1 1 1 1 1 1 1 1 
1 1 1 1 1 1 1 1 1 
1 1 1 1 1 1 1 1 1 
1 1 1 1 1 1 1 1 1 
1 1 1 1 1 1 1 1 1 
1 1 1 1 1 1 1 1 1 
1 1 1 1 1 1 1 1 1 
1 1 1 1 1 1 1 1 1 
1 1 1 1 1 1 1 1 1 
1 1 1 1 1 1 1 1 1 
1 1 1 1 1 1 1 1 1 
1 1 1 1 1 1 1 1 1 
1 1 1 1 1 1 1 1 1 
1 1 1 1 1 1 1 1 1 
1 1 1 1 1 1 1 1 1 
1 1 1 1 1 1 1 1 1 
1 1 1 1 1 1 1 1 1 
1 1 1 1 1 1 1 1 1 
1 1 1 1 1 1 1 1 1 
1 1 1 1 1 1 1 1 1 
1 1 1 1 1 1 1 1 1 
1 1 1 1 1 1 1 1 1 
1 1 1 1 1 1 1 1 1 
1 1 1 1 1 1 1 1 1 
1 1 1 1 1 1 1 1 1 
1 1 1 1 1 1 1 1 1 
1 1 1 1 1 1 1 1 1 
1 1 1 1 1 1 1 1 1 
1 1 1 1 1 1 1 1 1 
1 1 1 1 1 1 1 1 1 
1 1 1 1 1 1 1 1 1 
1 1 1 1 1 1 1 1 1 
1 1 1 1 1 1 1 1 1 
1 1 1 1 1 1 1 1 1 
1 1 1 1 1 1 1 1 1 
1 1 1 1 1 1 1 1 1 
1 1 1 1 1 1 1 1 1 
1 1 1 1 1 1 1 1 1 
1 1 1 1 1 1 1 1 1 
1 1 1 1 1 1 1 1 1 
1 1 1 1 1 1 1 1 1 
1 1 1 1 1 1 1 1 1 
1 1 1 1 1 1 1 1 1 
1 1 1 1 1 1 1 1 1 
1 1 1 1 1 1 1 1 1 
1 1 1 1 1 1 1 1 1 
1 1 1 1 1 1 1 1 1 
1 1 1 1 1 1 1 1 1 
1 1 1 1 1 1 1 1 1 
1 1 1 1 1 1 1 1 1 
1 1 1 1 1 1 1 1 1 
1 1 1 1 1 1 1 1 1 
1 1 1 1 1 1 1 1 1 
1 1 1 1 1 1 1 1 1 
1 1 1 1 1 1 1 1 1 
1 1 1 1 1 1 1 1 1 
1 1 1 1 1 1 1 1 1 
1 1 1 1 1 1 1 1 1 
1 1 1 1 1 1 1 1 1 
1 1 1 1 1 1 1 1 1 
1 1 1 1 1 1 1 1 1 
1 1 1 1 
NORMALS normals float
0 -0.0277671 -0.999614 0 -0.707107 -0.707107 -0.69694 -0.0199126 -0.716853 
0.69694 -0.0199126 -0.716853 0 0 -1 -0.697078 0 -0.716995 
0.697078 0 -0.716995 0 0.0277671 -0.999614 -0.69694 0.0199126 -0.716853 
0.577193 -0.560702 -0.593684 -0.566509 0.582695 -0.582695 0.571853 -0.571853 -0.588191 
-0.571853 0.571853 -0.588191 0 0 -1 0.697078 0 -0.716995 
0 0.697078 -0.716995 -0.0277564 -0.0277564 -0.999229 -0.0277564 -0.999229 -0.0277564 
-0.999229 -0.0277564 -0.0277564 0.0277564 -0.0277564 -0.999229 0.0277564 -0.999229 -0.0277564 
0.999229 -0.0277564 -0.0277564 -0.0277671 0 -0.999614 -0.707107 0 -0.707107 
0.0199126 -0.69694 -0.716853 0.716853 -0.69694 -0.0199126 -0.707107 0 -0.707107 
-0.707107 0 -0.707107 0.69694 -0.0199126 -0.716853 0.69694 -0.716853 -0.0199126 
0.0277564 -0.0277564 -0.999229 0.0277564 -0.999229 -0.0277564 0.999229 -0.0277564 -0.0277564 
-0.707107 0 -0.707107 -0.707107 0 -0.707107 0.697078 0 -0.716995 
0.0277671 0 -0.999614 0.707107 0 -0.707107 -0.707107 0 -0.707107 
-0.707107 0 -0.707107 0.571853 -0.571853 -0.588191 0.0277671 0 -0.999614 
0.999614 0 -0.0277671 -0.0277564 0.0277564 -0.999229 -0.999229 0.0277564 -0.0277564 
-0.566509 0.582695 -0.582695 0.707107 0 -0.707107 0.999614 0 -0.0277671 
-0.0277564 0.999229 -0.0277564 -0.566509 0.582695 -0.582695 -0.0199126 0.69694 -0.716853 
-0.582695 0.566509 -0.582695 0.0277564 0.0277564 -0.999229 0.999229 0.0277564 -0.0277564 
0 0.0277671 -0.999614 -0.999185 0.0285481 -0.0285481 0.69694 0.716853 -0.0199126 
0.70697 0.70697 -0.0196381 0 0.999614 -0.0277671 -0.0277564 -0.0277564 -0.999229 
-0.0277564 -0.999229 -0.0277564 -0.999229 -0.0277564 -0.0277564 0.0285481 -0.0285481 -0.999185 
0.0277671 -0.999614 0 0.999614 -0.0277671 0 -0.0285481 0.0285481 -0.999185 
-0.999614 0.0277671 0 0.0285481 0.0285481 -0.999185 0.999614 0.0277671 0 
-0.0277671 0.999614 0 0.0277671 0.999614 0 -0.0277671 -0.999614 0 
-0.707107 -0.707107 0 0.0277671 -0.999614 0 0.999614 -0.0277671 0 
-0.70697 -0.0196381 -0.70697 -0.70697 -0.70697 -0.0196381 -0.999229 -0.0277564 -0.0277564 
0.716995 -0.697078 0 -0.707107 0 -0.707107 -0.707107 0 -0.707107 
0.697078 -0.716995 0 0.0277671 -0.999614 0 0.582695 -0.582695 -0.566509 
0 -0.0277671 -0.999614 0 -0.999614 -0.0277671 -0.566509 -0.582695 -0.582695 
0.69694 -0.0199126 -0.716853 -0.707107 0 -0.707107 -0.707107 0 -0.707107 
0.571853 -0.571853 -0.588191 0.697078 0 -0.716995 0 0 -1 
0 -0.697078 -0.716995 0 0 -1 -0.571853 -0.571853 -0.588191 
0.0277564 0.0277564 -0.999229 0.70697 0.0196381 -0.70697 -0.70697 0.0196381 -0.70697 
-0.70697 0.0196381 -0.70697 0.588191 0.571853 -0.571853 0.571853 0.571853 -0.588191 
0 0.697078 -0.716995 0 0.697078 -0.716995 0.0196381 0.70697 -0.70697 
-0.57735 0.57735 -0.57735 -0.582695 0.582695 -0.566509 0.716995 0 -0.697078 
-0.582695 0.582695 -0.566509 -0.57735 0.57735 -0.57735 -0.57735 0.57735 -0.57735 
0.716853 0.0199126 -0.69694 -0.57735 0.57735 -0.57735 -0.571853 0.588191 -0.571853 
0.571853 0.588191 -0.571853 0.582695 0.582695 -0.566509 0 1 0 
0 -0.999592 0.0285598 -0.999592 0 0.0285598 0.716853 -0.0199126 0.69694 
0.697078 0 0.716995 0 0.697078 0.716995 -0.0199126 0.716853 0.69694 
0.0285481 0.0285481 0.999185 -0.0199126 -0.716853 -0.69694 -0.582695 -0.582695 -0.566509 
0.0199126 -0.716853 -0.69694 0.999614 -0.0277671 0 -0.582695 -0.582695 -0.566509 
-0.582695 -0.582695 -0.566509 0.588191 -0.571853 -0.571853 -0.70697 -0.0196381 -0.70697 
-0.57735 -0.57735 -0.57735 -0.999229 -0.0277564 -0.0277564 0.571853 -0.588191 -0.571853 
0 -0.716995 -0.697078 0.566509 -0.582695 -0.582695 0 -0.999614 -0.0277671 
0 -0.707107 -0.707107 0 -0.999614 -0.0277671 -0.566509 -0.582695 -0.582695 
0 -0.999614 -0.0277671 0 -1 0 0.69694 -0.0199126 -0.716853 
0 -0.999614 -0.0277671 0.0277564 -0.0277564 -0.999229 0.0277564 -0.999229 -0.0277564 
0.999229 -0.0277564 -0.0277564 -0.707107 0 -0.707107 -0.999614 0 -0.0277671 
0.697078 0 -0.716995 0.0277671 0 -0.999614 0.582695 -0.566509 -0.582695 
-0.707107 0 -0.707107 -0.999614 0 -0.0277671 0.571853 0.571853 -0.588191 
0 0.697078 -0.716995 0 0.697078 -0.716995 0 0.697078 -0.716995 
0 0 -1 0 0 -1 0.566509 -0.582695 -0.582695 
0 -0.0277671 -0.999614 0.0277671 0 -0.999614 0.0199126 -0.69694 -0.716853 
0.999614 0 -0.0277671 -0.0277564 0.0277564 -0.999229 -0.999229 0.0277564 -0.0277564 
-0.566509 0.582695 -0.582695 0.697078 0 -0.716995 0 0 -1 
0 0 -1 0 0 -1 0 0.0277671 -0.999614 
0 0.0277671 -0.999614 0.0277564 0.0277564 -0.999229 0.70697 0.70697 -0.0196381 
0.716853 0.69694 -0.0199126 -0.0277564 0.999229 -0.0277564 -0.69694 0.716853 -0.0199126 
-0.582695 0.566509 -0.582695 -0.716853 0.69694 -0.0199126 0.697078 0 -0.716995 
0 0 -1 0 0 -1 0.0277564 0.0277564 -0.999229 
0.70697 0.70697 -0.0196381 0.69694 0.716853 -0.0199126 0 0.999614 -0.0277671 
0.0277564 0.999229 -0.0277564 -0.0277564 0.0277564 -0.999229 -0.999229 0.0277564 -0.0277564 
-0.566509 0.582695 -0.582695 0.566509 0.582695 -0.582695 0 0.0277671 -0.999614 
0 0.0277671 -0.999614 0.0277564 0.0277564 -0.999229 0.70697 0.70697 -0.0196381 
0.70697 0.70697 -0.0196381 -0.0277564 0.999229 -0.0277564 0 0.999614 -0.0277671 
0 1 0 0 0.999614 -0.0277671 0 0.999614 -0.0277671 
0 0.999614 -0.0277671 0.0277564 0.999229 -0.0277564 0 0 1 
-0.0196381 -0.70697 -0.70697 -0.0196381 -0.70697 -0.70697 -0.57735 -0.57735 -0.57735 
0.0196381 -0.70697 -0.70697 0.0196381 -0.70697 -0.70697 0.999229 -0.0277564 -0.0277564 
-0.57735 -0.57735 -0.57735 -0.57735 -0.57735 -0.57735 -0.57735 -0.57735 -0.57735 
0.588191 -0.571853 -0.571853 -0.57735 -0.57735 -0.57735 -0.57735 -0.57735 -0.57735 
-0.999229 -0.0277564 -0.0277564 0.566509 -0.582695 -0.582695 0.566509 -0.582695 -0.582695 
0.0196381 -0.70697 -0.70697 0.0196381 -0.70697 -0.70697 0.70697 -0.70697 -0.0196381 
-1 0 0 0.697078 -0.716995 0 0 -1 0 
0 -1 0 0 -1 0 0 -1 0 
0.0277671 -0.999614 0 0.582695 -0.582695 -0.566509 -1 0 0 
0.566509 -0.582695 -0.582695 0.566509 -0.582695 -0.582695 0.0196381 -0.70697 -0.70697 
0.0196381 -0.70697 -0.70697 0.70697 -0.0196381 -0.70697 -1 0 0 
0.999614 0.0277671 0 -0.999614 0.0277671 0 0.707107 0.707107 0 
0.707107 0.707107 0 -0.0277671 0.999614 0 -0.697078 0.716995 0 
-0.716995 0.697078 0 0.707107 0.707107 0 0.697078 0.716995 0 
0 1 0 0.0277671 0.999614 0 -0.999614 0.0277671 0 
0.582695 0.582695 -0.566509 0.582695 0.582695 -0.566509 -0.0277671 0.999614 0 
0 1 0 0 0.716995 -0.697078 0 0.716995 -0.697078 
0 0.716995 -0.697078 0 0.716995 -0.697078 0.0199126 0.716853 -0.69694 
-0.0196381 -0.70697 -0.70697 -0.0277564 -0.999229 -0.0277564 -0.70697 -0.70697 -0.0196381 
0.0196381 -0.70697 -0.70697 0.0277564 -0.999229 -0.0277564 0.999229 -0.0277564 -0.0277564 
-0.57735 -0.57735 -0.57735 -0.70697 -0.70697 -0.0196381 -0.70697 -0.70697 -0.0196381 
0.716995 -0.697078 0 -0.57735 -0.57735 -0.57735 -0.70697 -0.70697 -0.0196381 
-0.999229 -0.0277564 -0.0277564 0.69694 -0.716853 -0.0199126 0.566509 -0.582695 -0.582695 
0.0196381 -0.70697 -0.70697 0.0277564 -0.999229 -0.0277564 0.999229 -0.0277564 -0.0277564 
-1 0 0 0.588191 -0.571853 -0.571853 -1 0 0 
0.571853 -0.588191 -0.571853 0 -0.716995 -0.697078 0 -1 0 
0 -1 0 0 -1 0 0 -1 0 
0.566509 -0.582695 -0.582695 0 -0.999614 -0.0277671 0 -0.707107 -0.707107 
0 -0.999614 -0.0277671 0 -0.0277671 -0.999614 0 -0.999614 -0.0277671 
0.0285598 0 -0.999592 0.0285598 -0.999592 0 1 0 0 
-1 0 0 0.716853 0.0199126 -0.69694 0.707107 0.707107 0 
0.716995 0.697078 0 -1 0 0 0.707107 0.707107 0 
0.707107 0.707107 0 -0.999614 0.0277671 0 0.707107 0.707107 0 
0.707107 0.707107 0 -0.0277671 0.999614 0 -0.697078 0.716995 0 
-0.716995 0.697078 0 0.716995 0.697078 0 0.697078 0.716995 0 
0 1 0 0.0277671 0.999614 0 -0.999614 0.0277671 0 
0.582695 0.566509 -0.582695 0.999614 0 -0.0277671 -0.0277671 0.999614 0 
-0.697078 0.716995 0 -0.0199126 0.69694 -0.716853 -0.716853 0.69694 -0.0199126 
0 0.697078 -0.716995 0 0.697078 -0.716995 0 0.697078 -0.716995 
0 0.697078 -0.716995 0.0277564 0.0277564 -0.999229 0.999229 0.0277564 -0.0277564 
-0.0277564 0.0277564 -0.999229 -0.999229 0.0277564 -0.0277564 0 0.0277671 -0.999614 
0 0.0277671 -0.999614 0 0.0277671 -0.999614 0.0277564 0.0277564 -0.999229 
0.70697 0.70697 -0.0196381 0.70697 0.70697 -0.0196381 -0.0277564 0.999229 -0.0277564 
0 0.999614 -0.0277671 0 0.999614 -0.0277671 0 0.999614 -0.0277671 
0.0277564 0.999229 -0.0277564 -0.0277671 -0.999614 0 -0.707107 -0.707107 0 
0.0277671 -0.999614 0 0.999614 -0.0277671 0 -0.707107 -0.707107 0 
-0.707107 -0.707107 0 0.716995 -0.697078 0 -0.707107 -0.707107 0 
-0.999614 -0.0277671 0 0.697078 -0.716995 0 0.0277671 -0.999614 0 
0.582695 -0.582695 -0.566509 -1 0 0 0.566509 -0.582695 -0.582695 
0.566509 -0.582695 -0.582695 0.0196381 -0.70697 -0.70697 0.0196381 -0.70697 -0.70697 
0.70697 -0.70697 -0.0196381 -1 0 0 0.697078 -0.716995 0 
0 -1 0 0 -1 0 0 -1 0 
0 -1 0 0 -1 0 0.0285481 -0.999185 0.0285481 
0.716995 0 0.697078 0.707107 0 0.707107 -1 0 0 
0.582695 0.582695 0.566509 0.588191 0.571853 0.571853 0.582695 0.566509 0.582695 
-1 0 0 0.999614 0.0277671 0 -0.999614 0.0277671 0 
0.582695 0.582695 -0.566509 0.582695 0.582695 -0.566509 -0.0277671 0.999614 0 
-0.697078 0.716995 0 -0.716995 0.697078 0 0.588191 0.571853 -0.571853 
0.571853 0.588191 -0.571853 0 0.716995 -0.697078 0.0199126 0.716853 -0.69694 
-0.999614 0.0277671 0 0.716995 0 -0.697078 -0.0277671 0.999614 0 
-0.697078 0.716995 0 -0.716995 0.697078 0 0.999614 0.0277671 0 
-0.999614 0.0277671 0 0.707107 0.707107 0 0.707107 0.707107 0 
-0.0277671 0.999614 0 0 1 0 0 1 0 
0 1 0 0.0277671 0.999614 0 -0.0277671 -0.999614 0 
-0.707107 -0.707107 0 0.0277564 -0.999229 0.0277564 0.999229 -0.0277564 0.0277564 
-0.707107 -0.707107 0 -0.707107 -0.707107 0 0.716995 -0.697078 0 
-0.707107 -0.707107 0 -0.999614 -0.0277671 0 0.697078 -0.716995 0 
0 -1 0 0.566509 -0.582695 -0.582695 0 -0.999614 -0.0277671 
0.0196381 -0.70697 -0.70697 0.0277564 -0.999229 -0.0277564 0.999229 -0.0277564 -0.0277564 
-1 0 0 0.588191 -0.571853 -0.571853 -1 0 0 
0.571853 -0.588191 -0.571853 0 -0.716995 -0.697078 0 -0.716995 -0.697078 
0 -0.716995 -0.697078 0 -1 0 0.0277564 -0.999229 0.0277564 
0.707107 0 0.707107 0.70697 -0.0196381 0.70697 -1 0 0 
0.999614 0 0.0277671 -1 0 0 0.999614 0 0.0277671 
-0.999614 0.0277671 0 0.588191 0.571853 -0.571853 1 0 0 
-0.0277671 0.999614 0 -0.697078 0.716995 0 -0.716995 0.697078 0 
0.571853 0.571853 -0.588191 0 0.697078 -0.716995 0 0.697078 -0.716995 
0.0285481 0.0285481 -0.999185 0.999614 0.0277671 0 -0.999614 0.0277671 0 
0.69694 0.0199126 -0.716853 0 0.0285598 -0.999592 0.0285481 0.0285481 -0.999185 
0.707107 0.707107 0 0.707107 0.707107 0 -0.0277671 0.999614 0 
-0.697078 0.716995 0 -0.716995 0.697078 0 0.70697 0.70697 0.0196381 
0.69694 0.716853 -0.0199126 0 1 0 0.0277671 0.999614 0 
-0.999229 0.0277564 0.0277564 0.70697 0.70697 0.0196381 0.70697 0.70697 0.0196381 
-0.0277564 0.999229 0.0277564 0 0.999614 0.0277671 0 0.999614 0.0277671 
0 0.999614 0.0277671 0.0277564 0.999229 0.0277564 0 -0.999614 0.0277671 
-0.69694 -0.716853 0.0199126 0.57735 -0.57735 0.57735 0.566509 -0.582695 0.582695 
-0.707107 -0.707107 0 -0.707107 -0.707107 0 0.57735 -0.57735 0.57735 
0.70697 -0.70697 0.0196381 -0.707107 -0.707107 0 -0.999614 -0.0277671 0 
0.69694 -0.716853 0.0199126 0 -0.999614 0.0277671 0 -0.999614 0.0277671 
0.0277564 -0.999229 0.0277564 0.588034 -0.588034 -0.555366 -1 0 0 
0.566509 -0.582695 -0.582695 0.566509 -0.582695 -0.582695 0 -0.707107 -0.707107 
0 -0.707107 -0.707107 0 -0.707107 -0.707107 0 -0.707107 -0.707107 
0.0196381 -0.70697 -0.70697 0.0196381 -0.70697 -0.70697 0.70697 -0.70697 -0.0196381 
-1 0 0 0.70697 -0.70697 0.0196381 0.70697 -0.0196381 0.70697 
0.70697 -0.0196381 0.70697 -1 0 0 0.707107 0 0.707107 
0.707107 0 0.707107 -1 0 0 0.707107 0 0.707107 
0.707107 0 0.707107 -0.999614 0.0277671 0 0.716995 0 0.697078 
0.707107 0 0.707107 -0.0277671 0.999614 0 -0.697078 0.716995 0 
-0.716995 0.697078 0 0.716853 0.0199126 0.69694 0.70697 0.0196381 0.70697 
-0.999614 0.0277671 0 0.571853 0.588191 0.571853 0.582695 0.582695 0.566509 
0.571853 0.588191 0.571853 0.0196381 0.70697 0.70697 0.0199126 0.716853 0.69694 
-0.0277671 0.999614 0 -0.697078 0.716995 0 -0.70697 0.70697 0.0196381 
0.57735 0.57735 0.57735 0.57735 0.57735 0.57735 0.571853 0.588191 0.571853 
0.0277671 0.999614 0 -0.0196381 0.70697 0.70697 -0.0196381 0.70697 0.70697 
0 0.707107 0.707107 0 0.707107 0.707107 0 0.707107 0.707107 
0 0.707107 0.707107 0 0.707107 0.707107 0 0.707107 0.707107 
0.0196381 0.70697 0.70697 0.0196381 0.70697 0.70697 0 -0.0277671 0.999614 
0 -1 0 -0.697078 -0.716995 0 0.571853 -0.571853 0.588191 
0.571853 -0.588191 0.571853 0.0196381 -0.70697 0.70697 -0.707107 -0.707107 0 
-0.999614 -0.0277671 0 0.571853 -0.588191 0.571853 0.0199126 -0.716853 0.69694 
0.69694 -0.0199126 0.716853 0.716853 -0.0199126 0.69694 0 -0.0277671 0.999614 
0 -0.0277671 0.999614 -0.555366 -0.588034 0.588034 0.555366 -0.588034 -0.588034 
-0.0277564 -0.999229 -0.0277564 -0.588034 -0.588034 0.555366 0 -0.707107 -0.707107 
0 -0.999614 -0.0277671 0 -0.707107 -0.707107 0 -0.999614 -0.0277671 
0.0196381 -0.70697 -0.70697 0.0277564 -0.999229 -0.0277564 0.999229 -0.0277564 -0.0277564 
-1 0 0 0.571853 -0.571853 0.588191 0.588191 -0.571853 0.571853 
0 -0.697078 0.716995 -0.571853 -0.571853 0.588191 -0.582695 -0.582695 0.566509 
-0.582695 -0.582695 0.566509 1 0 0 -1 0 0 
0.571853 -0.588191 0.571853 0 -0.716995 0.697078 -0.571853 -0.588191 0.571853 
0.70697 -0.0196381 0.70697 0.716995 0 0.697078 -1 0 0 
0.707107 0 0.707107 0.716995 0 0.697078 -1 0 0 
0.707107 0 0.707107 0.716995 0 0.697078 -0.999614 0.0277671 0 
0.707107 0 0.707107 0.707107 0 0.707107 -0.0277671 0.999614 0 
-0.697078 0.716995 0 -0.716995 0.697078 0 0.70697 0.0196381 0.70697 
0.70697 0.0196381 0.70697 -0.999614 0.0277671 0 0.70697 0.70697 0.0196381 
0.70697 0.70697 0.0196381 -0.0277671 0.999614 0 0 1 0 
0 0.716995 0.697078 -0.0196381 0.70697 0.70697 0 0.716995 0.697078 
0 0.707107 0.707107 0 0.716995 0.697078 0 0.707107 0.707107 
0 0.707107 0.707107 0 0.707107 0.707107 0 0.707107 0.707107 
0.0196381 0.70697 0.70697 0 0.999614 0.0277671 0.0277564 0.999229 0.0277564 
0 -1 0 -0.697078 -0.716995 0 0.697078 -0.716995 0 
-0.707107 -0.707107 0 -0.999614 -0.0277671 0 0.697078 -0.716995 0 
0.0277671 -0.999614 0 0.999614 -0.0277671 0 -0.0277671 -0.999614 0 
-0.707107 -0.707107 0 0 -1 0 0 -1 0 
0.0199126 -0.716853 -0.69694 0.716853 -0.0199126 -0.69694 -1 0 0 
0.716995 -0.697078 0 -0.707107 -0.707107 0 -0.707107 -0.707107 0 
0.716995 0 -0.697078 -1 0 0 0.697078 -0.716995 0 
0 -1 0 -0.697078 -0.716995 0 1 0 0 
-1 0 0 1 0 0 -1 0 0 
0.999614 0.0277671 0 -0.999614 0.0277671 0 0.582695 0.566509 0.582695 
0.588191 0.571853 0.571853 0.582695 0.582695 0.566509 -0.0277671 0.999614 0 
-0.697078 0.716995 0 -0.716995 0.697078 0 0.70697 0.0196381 0.70697 
0.70697 0.0196381 0.70697 -0.999614 0.0277671 0 0.566509 0.582695 0.582695 
0.582695 0.582695 0.566509 0.571853 0.588191 0.571853 0 0.707107 0.707107 
0 0.707107 0.707107 0 0.707107 0.707107 0 0.707107 0.707107 
0.0196381 0.70697 0.70697 0.0196381 0.70697 0.70697 -0.0277671 0.999614 0 
0 1 0 0 1 0 0 1 0 
0.0277671 0.999614 0 -0.0277564 -0.0277564 -0.999229 -0.0277564 -0.999229 -0.0277564 
-0.70697 -0.70697 -0.0196381 0.0277564 -0.0277564 -0.999229 0.0277564 -0.999229 -0.0277564 
0.999229 -0.0277564 -0.0277564 0 -1 0 -0.697078 -0.716995 0 
0.697078 -0.716995 0 -0.0196381 -0.70697 -0.70697 -0.70697 -0.70697 -0.0196381 
-0.70697 -0.70697 -0.0196381 0 0 -1 0.0277671 0 -0.999614 
0.999614 0 -0.0277671 -0.707107 -0.707107 0 -0.999614 -0.0277671 0 
0.697078 -0.716995 0 0.0277671 -0.999614 0 0.999614 -0.0277671 0 
-0.0277671 -0.999614 0 -0.707107 -0.707107 0 0 -1 0 
-0.697078 -0.716995 0 0.697078 0 -0.716995 0.0277564 0.0277564 -0.999229 
0.999229 0.0277564 -0.0277564 -1 0 0 0.588191 -0.571853 -0.571853 