# vtk DataFile Version 3.0
vtk output
ASCII
DATASET POLYDATA
POINTS 6034 float
86 152 60.0323 86 151.032 61 85.0323 152 61 
86.9677 152 61 86 153 60.0323 85.0323 153 61 
87 152.032 61 87 153 60.0323 87.9677 153 61 
86 153.968 61 87 153.968 61 91 144 61.0323 
91 143.032 62 90.0323 144 62 92 144 61.0323 
92 143.032 62 92.9677 144 62 90 145 61.0323 
90 144.032 62 89.0323 145 62 91 145 61.0323 
92 145 61.0323 92.9677 145 62 89 146 61.0323 
89 145.032 62 88.0323 146 62 90 146 61.0323 
91 146 61.0323 92 146 61.0323 92.9677 146 62 
89 147 61.0323 88.0323 147 62 90 147 61.0323 
91 147 61.0323 91.9677 147 62 92 146.968 62 
89 147.968 62 90 147.968 62 91 147.968 62 
81 152 61.0323 81 151.032 62 80.0323 152 62 
82 152 61.0323 82 151.032 62 83 152 61.0323 
83 151.032 62 84 152 61.0323 84 151.032 62 
85 152 61.0323 85 151.032 62 86 151.032 62 
87 152 61.0323 87 151.032 62 88 152 61.0323 
88 151.032 62 88.9677 152 62 80 153 61.0323 
80 152.032 62 79.0323 153 62 81 153 61.0323 
82 153 61.0323 83 153 61.0323 84 153 61.0323 
85 153 61.0323 88 153 61.0323 88.9677 153 62 
79 154 61.0323 79 153.032 62 78.0323 154 62 
80 154 61.0323 81 154 61.0323 82 154 61.0323 
83 154 61.0323 84 154 61.0323 85 154 61.0323 
86 154 61.0323 87 154 61.0323 88 154 61.0323 
88.9677 154 62 79 155 61.0323 78.0323 155 62 
80 155 61.0323 81 155 61.0323 82 155 61.0323 
83 155 61.0323 84 155 61.0323 85 155 61.0323 
86 155 61.0323 87 155 61.0323 88 155 61.0323 
88.9677 155 62 79 156 61.0323 78.0323 156 62 
80 156 61.0323 81 156 61.0323 82 156 61.0323 
83 156 61.0323 84 156 61.0323 85 156 61.0323 
86 156 61.0323 87 156 61.0323 88 156 61.0323 
88.9677 156 62 79 157 61.0323 78.0323 157 62 
80 157 61.0323 81 157 61.0323 82 157 61.0323 
83 157 61.0323 84 157 61.0323 85 157 61.0323 
86 157 61.0323 87 157 61.0323 88 157 61.0323 
88.9677 157 62 79 158 61.0323 78.0323 158 62 
80 158 61.0323 81 158 61.0323 82 158 61.0323 
83 158 61.0323 84 158 61.0323 85 158 61.0323 
86 158 61.0323 87 158 61.0323 88 158 61.0323 
88.9677 158 62 79 159 61.0323 78.0323 159 62 
80 159 61.0323 81 159 61.0323 82 159 61.0323 
83 159 61.0323 84 159 61.0323 85 159 61.0323 
86 159 61.0323 87 159 61.0323 88 159 61.0323 
88.9677 159 62 79 159.968 62 80 159.968 62 
81 159.968 62 82 159.968 62 83 159.968 62 
84 159.968 62 84.0323 160 62 85 160 61.0323 
86 160 61.0323 87 160 61.0323 88 160 61.0323 
88.9677 160 62 85 161 61.0323 84.0323 161 62 
86 161 61.0323 87 161 61.0323 87.9677 161 62 
88 160.968 62 85 161.968 62 86 161.968 62 
87 161.968 62 91 143.032 63 90.0323 144 63 
92 144 62.9677 91.9677 144 63 90 144.032 63 
89.0323 145 63 92 145 62.9677 91.9677 145 63 
89 145.032 63 88.0323 146 63 92 145.032 63 
92.9677 146 63 88.0323 147 63 92 147 62.0323 
92.9677 147 63 89 147.968 63 90 147.968 63 
91 147.968 63 92 147.968 63 88 150 62.0323 
88 149.032 63 87.0323 150 63 88.9677 150 63 
81 151 62.0323 81 150.032 63 80.0323 151 63 
82 151 62.0323 82 150.032 63 83 151 62.0323 
83 150.032 63 84 151 62.0323 84 150.032 63 
85 151 62.0323 85 150.032 63 86 151 62.0323 
86 150.032 63 87 151 62.0323 87 150.032 63 
88 151 62.0323 88.9677 151 63 80.0323 152 63 
88.9677 152 63 80 152.032 63 79.0323 153 63 
88.9677 153 63 79 153.032 63 78.0323 154 63 
88.9677 154 63 78.0323 155 63 88.9677 155 63 
78.0323 156 63 88.9677 156 63 78.0323 157 63 
88.9677 157 63 78.0323 158 63 88.9677 158 63 
78 159 62.0323 78 158.032 63 77.0323 159 63 
88.9677 159 63 78 159.968 63 79 159.968 63 
80 159.968 63 81 159.968 63 82 159.968 63 
83 159.968 63 84 160 62.0323 83.0323 160 63 
88.9677 160 63 84 161 62.0323 83.0323 161 63 
88 161 62.0323 88.9677 161 63 84 161.968 63 
85 161.968 63 86 161.968 63 87 161.968 63 
88 162 62.0323 87.0323 162 63 88.9677 162 63 
88 163 62.0323 87.0323 163 63 88.9677 163 63 
88 163.968 63 91 144 63.9677 90 144.032 64 
89.0323 145 64 91 145 63.9677 90.9677 145 64 
83 146 63.0323 83 145.032 64 82.0323 146 64 
84 146 63.0323 84 145.032 64 84.9677 146 64 
89 145.032 64 88.0323 146 64 91 145.032 64 
92 145.032 64 92.9677 146 64 82 147 63.0323 
82 146.032 64 81.0323 147 64 83 147 63.0323 
84 147 63.0323 84.9677 147 64 88.0323 147 64 
92 147 63.9677 91.9677 147 64 92 146.968 64 
82 147.968 64 82.0323 148 64 83 148 63.0323 
84 148 63.0323 85 147.032 64 85 148 63.0323 
86 148 63.0323 86 147.032 64 86.9677 148 64 
89 148 63.0323 88.0323 148 64 90 148 63.0323 
90.9677 148 64 91 147.968 64 82 149 63.0323 
82 148.032 64 81.0323 149 64 83 149 63.0323 
84 149 63.0323 85 149 63.0323 86 149 63.0323 
86.9677 149 64 88 149 63.0323 88 148.032 64 
87.0323 149 64 89 149 63.0323 90 149 63.0323 
90.9677 149 64 81 150 63.0323 81 149.032 64 
80.0323 150 64 82 150 63.0323 83 150 63.0323 
84 150 63.0323 85 150 63.0323 86 150 63.0323 
87 149.032 64 87 150 63.0323 89 150 63.0323 
90 150 63.0323 90.9677 150 64 80.0323 151 64 
89 151 63.0323 90 151 63.0323 90.9677 151 64 
80.0323 152 64 89 152 63.0323 90 152 63.0323 
90.9677 152 64 80 152.032 64 79.0323 153 64 
89 153 63.0323 90 153 63.0323 90.9677 153 64 
79 153.032 64 78.0323 154 64 89 154 63.0323 
90 154 63.0323 90.9677 154 64 78.0323 155 64 
89 155 63.0323 90 155 63.0323 90.9677 155 64 
78.0323 156 64 89 156 63.0323 90 156 63.0323 
90.9677 156 64 78.0323 157 64 89 157 63.0323 
90 157 63.0323 90.9677 157 64 78.0323 158 64 
89 158 63.0323 90 158 63.0323 90.9677 158 64 
78 158.032 64 77.0323 159 64 89 159 63.0323 
90 159 63.0323 90.9677 159 64 77 160 63.0323 
77 159.032 64 76.0323 160 64 78 160 63.0323 
79 160 63.0323 80 160 63.0323 81 160 63.0323 
82 160 63.0323 83 160 63.0323 89 160 63.0323 
90 160 63.0323 90.9677 160 64 77 161 63.0323 
76.0323 161 64 78 161 63.0323 79 161 63.0323 
80 161 63.0323 81 161 63.0323 82 161 63.0323 
83 161 63.0323 89 161 63.0323 90 161 63.0323 
90.9677 161 64 77 162 63.0323 76.0323 162 64 
78 162 63.0323 79 162 63.0323 80 162 63.0323 
81 162 63.0323 82 162 63.0323 83 162 63.0323 
84 162 63.0323 85 162 63.0323 86 162 63.0323 
87 162 63.0323 89 162 63.0323 90 162 63.0323 
90.9677 162 64 77 163 63.0323 76.0323 163 64 
78 163 63.0323 79 163 63.0323 80 163 63.0323 
81 163 63.0323 82 163 63.0323 83 163 63.0323 
84 163 63.0323 85 163 63.0323 86 163 63.0323 
87 163 63.0323 89 163 63.0323 89.9677 163 64 
90 162.968 64 77 163.968 64 78 163.968 64 
79 163.968 64 80 163.968 64 81 163.968 64 
82 163.968 64 83 163.968 64 84 163.968 64 
84.0323 164 64 85 164 63.0323 86 164 63.0323 
87 164 63.0323 88 164 63.0323 88.9677 164 64 
89 163.968 64 85 165 63.0323 84.0323 165 64 
86 165 63.0323 87 165 63.0323 87.9677 165 64 
88 164.968 64 85 165.968 64 86 165.968 64 
87 165.968 64 90 145 64.9677 83 145.032 65 
82.0323 146 65 84 146 64.9677 83.9677 146 65 
89 145.032 65 88.0323 146 65 90 145.032 65 
91 145.032 65 92 146 64.9677 91.9677 146 65 
82 147 64.9677 82.0323 147 65 84 146.032 65 
84.9677 147 65 88.0323 147 65 91 147 64.9677 
90.9677 147 65 91 146.968 65 82 147.032 65 
81.0323 148 65 82 148 64.0323 85 147.032 65 
86 148 64.9677 85.9677 148 65 88.0323 148 65 
90.9677 148 65 81.0323 149 65 86 148.032 65 
86.9677 149 65 88 148.032 65 87.0323 149 65 
90.9677 149 65 81 149.032 65 80.0323 150 65 
87 149.032 65 90.9677 150 65 80.0323 151 65 
90.9677 151 65 80.0323 152 65 90.9677 152 65 
80 153 64.9677 80.0323 153 65 90.9677 153 65 
79 153.032 65 78.0323 154 65 80 153.032 65 
90.9677 154 65 78.0323 155 65 90.9677 155 65 
78.0323 156 65 90.9677 156 65 78.0323 157 65 
90.9677 157 65 78.0323 158 65 90.9677 158 65 
78 159 64.9677 78.0323 159 65 90.9677 159 65 
77 159.032 65 76.0323 160 65 78 159.032 65 
90.9677 160 65 76.0323 161 65 90.9677 161 65 
76.0323 162 65 90.9677 162 65 76.0323 163 65 
90 163 64.0323 90.9677 163 65 77 163.968 65 
78 163.968 65 79 163.968 65 80 163.968 65 
81 163.968 65 82 163.968 65 83 163.968 65 
84 164 64.0323 83.0323 164 65 88.9677 164 65 
89 163.968 65 90 163.968 65 84 165 64.0323 
83.0323 165 65 88 165 64.0323 88.9677 165 65 
84 165.968 65 85 165.968 65 86 165.968 65 
87 165.968 65 88 166 64.0323 87.0323 166 65 
88.9677 166 65 88 167 64.0323 87.0323 167 65 
89 166.032 65 89 167 64.0323 89.9677 167 65 
88 167.968 65 89 167.968 65 83 146 65.9677 
89 146 65.9677 90 146 65.9677 91 146 65.9677 
83 147 65.9677 84 147 65.9677 89 147 65.9677 
90 147 65.9677 82 148 65.9677 82.0323 148 66 
83 147.032 66 84 147.032 66 85 148 65.9677 
84.9677 148 66 89 148 65.9677 90 148 65.9677 
82 149 65.9677 82.0323 149 66 84 149 65.9677 
83.9677 149 66 84 148.968 66 85 149 65.9677 
86 149 65.9677 88 148.032 66 87.0323 149 66 
89 149 65.9677 88.9677 149 66 90 149 65.9677 
81 150 65.9677 82 150 65.9677 83 149.968 66 
83 150 65.9677 84 150 65.9677 85 150 65.9677 
86 150 65.9677 87 149.032 66 86.0323 150 66 
89 149.032 66 90 149.032 66 90.9677 150 66 
81 151 65.9677 82 151 65.9677 83 151 65.9677 
84 151 65.9677 85 151 65.9677 85.0323 151 66 
86 150.032 66 90.9677 151 66 81 152 65.9677 
82 152 65.9677 83 152 65.9677 84 152 65.9677 
84.0323 152 66 85 151.032 66 90.9677 152 66 
81 153 65.9677 81.0323 153 66 82 152.032 66 
83 153 65.9677 82.9677 153 66 83.0323 153 66 
84 152.032 66 90.9677 153 66 79 154 65.9677 
80 154 65.9677 80.0323 154 66 81 153.032 66 
83 153.032 66 90.9677 154 66 79 155 65.9677 
80 155 65.9677 80.0323 155 66 90.9677 155 66 
79 156 65.9677 80 156 65.9677 80.0323 156 66 
90.9677 156 66 79 157 65.9677 80 157 65.9677 
80.0323 157 66 90.9677 157 66 79 158 65.9677 
80 158 65.9677 80.0323 158 66 90.9677 158 66 
79 159 65.9677 80 159 65.9677 80.0323 159 66 
90.9677 159 66 77 160 65.9677 78 160 65.9677 
79 160 65.9677 80 160 65.9677 80.0323 160 66 
90.9677 160 66 77 161 65.9677 78 161 65.9677 
79 161 65.9677 79.0323 161 66 80 160.032 66 
90.9677 161 66 77 161.032 66 76.0323 162 66 
78 161.032 66 79 161.032 66 90.9677 162 66 
76.0323 163 66 90.9677 163 66 77 164 65.0323 
76.0323 164 66 78 164 65.0323 79 164 65.0323 
80 164 65.0323 81 164 65.0323 82 164 65.0323 
83 164 65.0323 89 164 65.0323 90 164 65.0323 
90.9677 164 66 77 165 65.0323 76.0323 165 66 
78 165 65.0323 79 165 65.0323 80 165 65.0323 
81 165 65.0323 82 165 65.0323 83 165 65.0323 
[...]
POINT_DATA 6034
SCALARS scalars float
LOOKUP_TABLE default
1 1 1 1 1 1 1 1 1 
1 1 1 1 1 1 1 1 1 
1 1 1 1 1 1 1 1 1 
1 1 1 1 1 1 1 1 1 
1 1 1 1 1 1 1 1 1 
1 1 1 1 1 1 1 1 1 
1 1 1 1 1 1 1 1 1 
1 1 1 1 1 1 1 1 1 
1 1 1 1 1 1 1 1 1 
1 1 1 1 1 1 1 1 1 
1 1 1 1 1 1 1 1 1 
1 1 1 1 1 1 1 1 1 
1 1 1 1 1 1 1 1 1 
1 1 1 1 1 1 1 1 1 
1 1 1 1 1 1 1 1 1 
1 1 1 1 1 1 1 1 1 
1 1 1 1 1 1 1 1 1 
1 1 1 1 1 1 1 1 1 
1 1 1 1 1 1 1 1 1 
1 1 1 1 1 1 1 1 1 
1 1 1 1 1 1 1 1 1 
1 1 1 1 1 1 1 1 1 
1 1 1 1 1 1 1 1 1 
1 1 1 1 1 1 1 1 1 
1 1 1 1 1 1 1 1 1 
1 1 1 1 1 1 1 1 1 
1 1 1 1 1 1 1 1 1 
1 1 1 1 1 1 1 1 1 
1 1 1 1 1 1 1 1 1 
1 1 1 1 1 1 1 1 1 
1 1 1 1 1 1 1 1 1 
1 1 1 1 1 1 1 1 1 
1 1 1 1 1 1 1 1 1 
1 1 1 1 1 1 1 1 1 
1 1 1 1 1 1 1 1 1 
1 1 1 1 1 1 1 1 1 
1 1 1 1 1 1 1 1 1 
1 1 1 1 1 1 1 1 1 
1 1 1 1 1 1 1 1 1 
1 1 1 1 1 1 1 1 1 
1 1 1 1 1 1 1 1 1 
1 1 1 1 1 1 1 1 1 
1 1 1 1 1 1 1 1 1 
1 1 1 1 1 1 1 1 1 
1 1 1 1 1 1 1 1 1 
1 1 1 1 1 1 1 1 1 
1 1 1 1 1 1 1 1 1 
1 1 1 1 1 1 1 1 1 
1 1 1 1 1 1 1 1 1 
1 1 1 1 1 1 1 1 1 
1 1 1 1 1 1 1 1 1 
1 1 1 1 1 1 1 1 1 
1 1 1 1 1 1 1 1 1 
1 1 1 1 1 1 1 1 1 
1 1 1 1 1 1 1 1 1 
1 1 1 1 1 1 1 1 1 
1 1 1 1 1 1 1 1 1 
1 1 1 1 1 1 1 1 1 
1 1 1 1 1 1 1 1 1 
1 1 1 1 1 1 1 1 1 
1 1 1 1 1 1 1 1 1 
1 1 1 1 1 1 1 1 1 
1 1 1 1 1 1 1 1 1 
1 1 1 1 1 1 1 1 1 
1 1 1 1 1 1 1 1 1 
1 1 1 1 1 1 1 1 1 
1 1 1 1 1 1 1 1 1 
1 1 1 1 1 1 1 1 1 
1 1 1 1 1 1 1 1 1 
1 1 1 1 1 1 1 1 1 
1 1 1 1 1 1 1 1 1 
1 1 1 1 1 1 1 1 1 
1 1 1 1 1 1 1 1 1 
1 1 1 1 1 1 1 1 1 
1 1 1 1 1 1 1 1 1 
1 1 1 1 1 1 1 1 1 
1 1 1 1 1 1 1 1 1 
1 1 1 1 1 1 1 1 1 
1 1 1 1 1 1 1 1 1 
1 1 1 1 1 1 1 1 1 
1 1 1 1 1 1 1 1 1 
1 1 1 1 1 1 1 1 1 
1 1 1 1 1 1 1 1 1 
1 1 1 1 1 1 1 1 1 
1 1 1 1 1 1 1 1 1 
1 1 1 1 1 1 1 1 1 
1 1 1 1 1 1 1 1 1 
1 1 1 1 1 1 1 1 1 
1 1 1 1 1 1 1 1 1 
1 1 1 1 1 1 1 1 1 
1 1 1 1 1 1 1 1 1 
1 1 1 1 1 1 1 1 1 
1 1 1 1 1 1 1 1 1 
1 1 1 1 1 1 1 1 1 
1 1 1 1 1 1 1 1 1 
1 1 1 1 1 1 1 1 1 
1 1 1 1 1 1 1 1 1 
1 1 1 1 1 1 1 1 1 
1 1 1 1 1 1 1 1 1 
1 1 1 1 1 1 1 1 1 
1 1 1 1 1 1 1 1 1 
1 1 1 1 1 1 1 1 1 
1 1 1 1 1 1 1 1 1 
1 1 1 1 1 1 1 1 1 
1 1 1 1 1 1 1 1 1 
1 1 1 1 1 1 1 1 1 
1 1 1 1 1 1 1 1 1 
1 1 1 1 1 1 1 1 1 
1 1 1 1 1 1 1 1 1 
1 1 1 1 1 1 1 1 1 
1 1 1 1 1 1 1 1 1 
1 1 1 1 1 1 1 1 1 
1 1 1 1 1 1 1 1 1 
1 1 1 1 1 1 1 1 1 
1 1 1 1 1 1 1 1 1 
1 1 1 1 1 1 1 1 1 
1 1 1 1 1 1 1 1 1 
1 1 1 1 1 1 1 1 1 
1 1 1 1 1 1 1 1 1 
1 1 1 1 1 1 1 1 1 
1 1 1 1 1 1 1 1 1 
1 1 1 1 1 1 1 1 1 
1 1 1 1 1 1 1 1 1 
1 1 1 1 1 1 1 1 1 
1 1 1 1 1 1 1 1 1 
1 1 1 1 1 1 1 1 1 
1 1 1 1 1 1 1 1 1 
1 1 1 1 1 1 1 1 1 
1 1 1 1 1 1 1 1 1 
1 1 1 1 1 1 1 1 1 
1 1 1 1 1 1 1 1 1 
1 1 1 1 1 1 1 1 1 
1 1 1 1 1 1 1 1 1 
1 1 1 1 1 1 1 1 1 
1 1 1 1 1 1 1 1 1 
1 1 1 1 1 1 1 1 1 
1 1 1 1 1 1 1 1 1 
1 1 1 1 1 1 1 1 1 
1 1 1 1 1 1 1 1 1 
1 1 1 1 1 1 1 1 1 
1 1 1 1 1 1 1 1 1 
1 1 1 1 1 1 1 1 1 
1 1 1 1 1 1 1 1 1 
1 1 1 1 1 1 1 1 1 
1 1 1 1 1 1 1 1 1 
1 1 1 1 1 1 1 1 1 
1 1 1 1 1 1 1 1 1 
1 1 1 1 1 1 1 1 1 
1 1 1 1 1 1 1 1 1 
1 1 1 1 1 1 1 1 1 
1 1 1 1 1 1 1 1 1 
1 1 1 1 1 1 1 1 1 
1 1 1 1 1 1 1 1 1 
1 1 1 1 1 1 1 1 1 
1 1 1 1 1 1 1 1 1 
1 1 1 1 1 1 1 1 1 
1 1 1 1 1 1 1 1 1 
1 1 1 1 1 1 1 1 1 
1 1 1 1 1 1 1 1 1 
1 1 1 1 1 1 1 1 1 
1 1 1 1 1 1 1 1 1 
1 1 1 1 1 1 1 1 1 
1 1 1 1 1 1 1 1 1 
1 1 1 1 1 1 1 1 1 
1 1 1 1 1 1 1 1 1 
1 1 1 1 1 1 1 1 1 
1 1 1 1 1 1 1 1 1 
1 1 1 1 1 1 1 1 1 
1 1 1 1 1 1 1 1 1 
1 1 1 1 1 1 1 1 1 
1 1 1 1 1 1 1 1 1 
1 1 1 1 1 1 1 1 1 
1 1 1 1 1 1 1 1 1 
1 1 1 1 1 1 1 1 1 
1 1 1 1 1 1 1 1 1 
1 1 1 1 1 1 1 1 1 
1 1 1 1 1 1 1 1 1 
1 1 1 1 1 1 1 1 1 
1 1 1 1 1 1 1 1 1 
1 1 1 1 1 1 1 1 1 
1 1 1 1 1 1 1 1 1 
1 1 1 1 1 1 1 1 1 
1 1 1 1 1 1 1 1 1 
1 1 1 1 1 1 1 1 1 
1 1 1 1 1 1 1 1 1 
1 1 1 1 1 1 1 1 1 
1 1 1 1 1 1 1 1 1 
1 1 1 1 1 1 1 1 1 
1 1 1 1 1 1 1 1 1 
1 1 1 1 1 1 1 1 1 
1 1 1 1 1 1 1 1 1 
1 1 1 1 1 1 1 1 1 
1 1 1 1 1 1 1 1 1 
1 1 1 1 1 1 1 1 1 
1 1 1 1 1 1 1 1 1 
1 1 1 1 1 1 1 1 1 
1 1 1 1 1 1 1 1 1 
1 1 1 1 1 1 1 1 1 
1 1 1 1 1 1 1 1 1 
1 1 1 1 1 1 1 1 1 
1 1 1 1 1 1 1 1 1 
1 1 1 1 1 1 1 1 1 
1 1 1 1 1 1 1 1 1 
1 1 1 1 1 1 1 1 1 
1 1 1 1 1 1 1 1 1 
1 1 1 1 1 1 1 1 1 
1 1 1 1 1 1 1 1 1 
1 1 1 1 1 1 1 1 1 
1 1 1 1 1 1 1 1 1 
1 1 1 1 1 1 1 1 1 
1 1 1 1 1 1 1 1 1 
1 1 1 1 1 1 1 1 1 
1 1 1 1 1 1 1 1 1 
1 1 1 1 1 1 1 1 1 
1 1 1 1 1 1 1 1 1 
1 1 1 1 1 1 1 1 1 
1 1 1 1 1 1 1 1 1 
1 1 1 1 1 1 1 1 1 
1 1 1 1 1 1 1 1 1 
1 1 1 1 1 1 1 1 1 
1 1 1 1 1 1 1 1 1 
1 1 1 1 1 1 1 1 1 
1 1 1 1 1 1 1 1 1 
1 1 1 1 1 1 1 1 1 
1 1 1 1 1 1 1 1 1 
1 1 1 1 1 1 1 1 1 
1 1 1 1 1 1 1 1 1 
1 1 1 1 1 1 1 1 1 
1 1 1 1 1 1 1 1 1 
1 1 1 1 1 1 1 1 1 
1 1 1 1 1 1 1 1 1 
1 1 1 1 1 1 1 1 1 
1 1 1 1 1 1 1 1 1 
1 1 1 1 1 1 1 1 1 
1 1 1 1 1 1 1 1 1 
1 1 1 1 1 1 1 1 1 
1 1 1 1 1 1 1 1 1 
1 1 1 1 1 1 1 1 1 
1 1 1 1 1 1 1 1 1 
1 1 1 1 1 1 1 1 1 
1 1 1 1 1 1 1 1 1 
1 1 1 1 1 1 1 1 1 
1 1 1 1 1 1 1 1 1 
1 1 1 1 1 1 1 1 1 
1 1 1 1 1 1 1 1 1 
1 1 1 1 1 1 1 1 1 
1 1 1 1 1 1 1 1 1 
1 1 1 1 1 1 1 1 1 
1 1 1 1 1 1 1 1 1 
1 1 1 1 1 1 1 1 1 
1 1 1 1 1 1 1 1 1 
1 1 1 1 1 1 1 1 1 
1 1 1 1 1 1 1 1 1 
1 1 1 1 1 1 1 1 1 
1 1 1 1 1 1 1 1 1 
1 1 1 1 1 1 1 1 1 
1 1 1 1 1 1 1 1 1 
1 1 1 1 1 1 1 1 1 
1 1 1 1 1 1 1 1 1 
1 1 1 1 1 1 1 1 1 
1 1 1 1 1 1 1 1 1 
1 1 1 1 1 1 1 1 1 
1 1 1 1 1 1 1 1 1 
1 1 1 1 1 1 1 1 1 
1 1 1 1 1 1 1 1 1 
1 1 1 1 1 1 1 1 1 
1 1 1 1 1 1 1 1 1 
1 1 1 1 1 1 1 1 1 
1 1 1 1 1 1 1 1 1 
1 1 1 1 1 1 1 1 1 
1 1 1 1 1 1 1 1 1 
1 1 1 1 1 1 1 1 1 
1 1 1 1 1 1 1 1 1 
1 1 1 1 1 1 1 1 1 
1 1 1 1 1 1 1 1 1 
1 1 1 1 1 1 1 1 1 
1 1 1 1 1 1 1 1 1 
1 1 1 1 1 1 1 1 1 
1 1 1 1 1 1 1 1 1 
1 1 1 1 1 1 1 1 1 
1 1 1 1 1 1 1 1 1 
1 1 1 1 1 1 1 1 1 
1 1 1 1 1 1 1 1 1 
1 1 1 1 1 1 1 1 1 
1 1 1 1 1 1 1 1 1 
1 1 1 1 1 1 1 1 1 
1 1 1 1 1 1 1 1 1 
1 1 1 1 1 1 1 1 1 
1 1 1 1 1 1 1 1 1 
1 1 1 1 1 1 1 1 1 
1 1 1 1 1 1 1 1 1 
1 1 1 1 1 1 1 1 1 
1 1 1 1 1 1 1 1 1 
1 1 1 1 1 1 1 1 1 
1 1 1 1 1 1 1 1 1 
1 1 1 1 1 1 1 1 1 
1 1 1 1 1 1 1 1 1 
1 1 1 1 1 1 1 1 1 
1 1 1 1 1 1 1 1 1 
1 1 1 1 1 1 1 1 1 
1 1 1 1 1 1 1 1 1 
1 1 1 1 1 1 1 1 1 
1 1 1 1 1 1 1 1 1 
1 1 1 1 1 1 1 1 1 
1 1 1 1 1 1 1 1 1 
1 1 1 1 1 1 1 1 1 
1 1 1 1 1 1 1 1 1 
1 1 1 1 1 1 1 1 1 
1 1 1 1 1 1 1 1 1 
1 1 1 1 1 1 1 1 1 
1 1 1 1 1 1 1 1 1 
1 1 1 1 1 1 1 1 1 
1 1 1 1 1 1 1 1 1 
1 1 1 1 1 1 1 1 1 
1 1 1 1 1 1 1 1 1 
1 1 1 1 1 1 1 1 1 
1 1 1 1 1 1 1 1 1 
1 1 1 1 1 1 1 1 1 
1 1 1 1 1 1 1 1 1 
1 1 1 1 1 1 1 1 1 
1 1 1 1 1 1 1 1 1 
1 1 1 1 1 1 1 1 1 
1 1 1 1 1 1 1 1 1 
1 1 1 1 1 1 1 1 1 
1 1 1 1 1 1 1 1 1 
1 1 1 1 1 1 1 1 1 
1 1 1 1 1 1 1 1 1 
1 1 1 1 1 1 1 1 1 
1 1 1 1 1 1 1 1 1 
1 1 1 1 1 1 1 1 1 
1 1 1 1 1 1 1 1 1 
1 1 1 1 1 1 1 1 1 
1 1 1 1 1 1 1 1 1 
1 1 1 1 1 1 1 1 1 
1 1 1 1 1 1 1 1 1 
1 1 1 1 1 1 1 1 1 
1 1 1 1 1 1 1 1 1 
1 1 1 1 1 1 1 1 1 
1 1 1 1 1 1 1 1 1 
1 1 1 1 1 1 1 1 1 
1 1 1 1 1 1 1 1 1 
1 1 1 1 1 1 1 1 1 
1 1 1 1 1 1 1 1 1 
1 1 1 1 1 1 1 1 1 
1 1 1 1 1 1 1 1 1 
1 1 1 1 1 1 1 1 1 
1 1 1 1 1 1 1 1 1 
1 1 1 1 1 1 1 1 1 
1 1 1 1 1 1 1 1 1 
1 1 1 1 1 1 1 1 1 
1 1 1 1 1 1 1 1 1 
1 1 1 1 1 1 1 1 1 
1 1 1 1 1 1 1 1 1 
1 1 1 1 1 1 1 1 1 
1 1 1 1 1 1 1 1 1 
1 1 1 1 1 1 1 1 1 
1 1 1 1 1 1 1 1 1 
1 1 1 1 1 1 1 1 1 
1 1 1 1 1 1 1 1 1 
1 1 1 1 1 1 1 1 1 
1 1 1 1 1 1 1 1 1 
1 1 1 1 1 1 1 1 1 
1 1 1 1 1 1 1 1 1 
1 1 1 1 1 1 1 1 1 
1 1 1 1 1 1 1 1 1 
1 1 1 1 1 1 1 1 1 
1 1 1 1 1 1 1 1 1 
1 1 1 1 1 1 1 1 1 
1 1 1 1 1 1 1 1 1 
1 1 1 1 1 1 1 1 1 
1 1 1 1 1 1 1 1 1 
1 1 1 1 1 1 1 1 1 
1 1 1 1 1 1 1 1 1 
1 1 1 1 1 1 1 1 1 
1 1 1 1 1 1 1 1 1 
1 1 1 1 1 1 1 1 1 
1 1 1 1 1 1 1 1 1 
1 1 1 1 1 1 1 1 1 
1 1 1 1 1 1 1 1 1 
1 1 1 1 1 1 1 1 1 
1 1 1 1 1 1 1 1 1 
1 1 1 1 1 1 1 1 1 
1 1 1 1 1 1 1 1 1 
1 1 1 1 1 1 1 1 1 
1 1 1 1 1 1 1 1 1 
1 1 1 1 1 1 1 1 1 
1 1 1 1 1 1 1 1 1 
1 1 1 1 1 1 1 1 1 
1 1 1 1 1 1 1 1 1 
1 1 1 1 1 1 1 1 1 
1 1 1 1 1 1 1 1 1 
1 1 1 1 1 1 1 1 1 
1 1 1 1 1 1 1 1 1 
1 1 1 1 1 1 1 1 1 
1 1 1 1 1 1 1 1 1 
1 1 1 1 1 1 1 1 1 
1 1 1 1 1 1 1 1 1 
1 1 1 1 1 1 1 1 1 
1 1 1 1 1 1 1 1 1 
1 1 1 1 1 1 1 1 1 
1 1 1 1 1 1 1 1 1 
1 1 1 1 1 1 1 1 1 
1 1 1 1 1 1 1 1 1 
1 1 1 1 1 1 1 1 1 
1 1 1 1 1 1 1 1 1 
1 1 1 1 1 1 1 1 1 
1 1 1 1 1 1 1 1 1 
1 1 1 1 1 1 1 1 1 
1 1 1 1 1 1 1 1 1 
1 1 1 1 1 1 1 1 1 
1 1 1 1 1 1 1 1 1 
1 1 1 1 1 1 1 1 1 
1 1 1 1 1 1 1 1 1 
1 1 1 1 1 1 1 1 1 
1 1 1 1 1 1 1 1 1 
1 1 1 1 1 1 1 1 1 
1 1 1 1 1 1 1 1 1 
1 1 1 1 1 1 1 1 1 
1 1 1 1 1 1 1 1 1 
1 1 1 1 1 1 1 1 1 
1 1 1 1 1 1 1 1 1 
1 1 1 1 1 1 1 1 1 
1 1 1 1 1 1 1 1 1 
1 1 1 1 1 1 1 1 1 
1 1 1 1 1 1 1 1 1 
1 1 1 1 1 1 1 1 1 
1 1 1 1 1 1 1 1 1 
1 1 1 1 1 1 1 1 1 
1 1 1 1 1 1 1 1 1 
1 1 1 1 1 1 1 1 1 
1 1 1 1 1 1 1 1 1 
1 1 1 1 1 1 1 1 1 
1 1 1 1 1 1 1 1 1 
1 1 1 1 1 1 1 1 1 
1 1 1 1 1 1 1 1 1 
1 1 1 1 1 1 1 1 1 
1 1 1 1 1 1 1 1 1 
1 1 1 1 1 1 1 1 1 
1 1 1 1 1 1 1 1 1 
1 1 1 1 1 1 1 1 1 
1 1 1 1 1 1 1 1 1 
1 1 1 1 1 1 1 1 1 
1 1 1 1 1 1 1 1 1 
1 1 1 1 1 1 1 1 1 
1 1 1 1 1 1 1 1 1 
1 1 1 1 1 1 1 1 1 
1 1 1 1 1 1 1 1 1 
1 1 1 1 1 1 1 1 1 
1 1 1 1 1 1 1 1 1 
1 1 1 1 1 1 1 1 1 
1 1 1 1 1 1 1 1 1 
1 1 1 1 1 1 1 1 1 
1 1 1 1 1 1 1 1 1 
1 1 1 1 1 1 1 1 1 
1 1 1 1 1 1 1 1 1 
1 1 1 1 1 1 1 1 1 
1 1 1 1 1 1 1 1 1 
1 1 1 1 1 1 1 1 1 
1 1 1 1 1 1 1 1 1 
1 1 1 1 1 1 1 1 1 
1 1 1 1 1 1 1 1 1 
1 1 1 1 1 1 1 1 1 
1 1 1 1 1 1 1 1 1 
1 1 1 1 1 1 1 1 1 
1 1 1 1 1 1 1 1 1 
1 1 1 1 1 1 1 1 1 
1 1 1 1 1 1 1 1 1 
1 1 1 1 1 1 1 1 1 
1 1 1 1 1 1 1 1 1 
1 1 1 1 1 1 1 1 1 
1 1 1 1 1 1 1 1 1 
1 1 1 1 1 1 1 1 1 
1 1 1 1 1 1 1 1 1 
1 1 1 1 1 1 1 1 1 
1 1 1 1 1 1 1 1 1 
1 1 1 1 1 1 1 1 1 
1 1 1 1 1 1 1 1 1 
1 1 1 1 1 1 1 1 1 
1 1 1 1 1 1 1 1 1 
1 1 1 1 1 1 1 1 1 
1 1 1 1 1 1 1 1 1 
1 1 1 1 1 1 1 1 1 
1 1 1 1 1 1 1 1 1 
1 1 1 1 1 1 1 1 1 
1 1 1 1 1 1 1 1 1 
1 1 1 1 1 1 1 1 1 
1 1 1 1 1 1 1 1 1 
1 1 1 1 1 1 1 1 1 
1 1 1 1 1 1 1 1 1 
1 1 1 1 1 1 1 1 1 
1 1 1 1 1 1 1 1 1 
1 1 1 1 1 1 1 1 1 
1 1 1 1 1 1 1 1 1 
1 1 1 1 1 1 1 1 1 
1 1 1 1 1 1 1 1 1 
1 1 1 1 1 1 1 1 1 
1 1 1 1 1 1 1 1 1 
1 1 1 1 1 1 1 1 1 
1 1 1 1 1 1 1 1 1 
1 1 1 1 1 1 1 1 1 
1 1 1 1 1 1 1 1 1 
1 1 1 1 1 1 1 1 1 
1 1 1 1 1 1 1 1 1 
1 1 1 1 1 1 1 1 1 
1 1 1 1 1 1 1 1 1 
1 1 1 1 1 1 1 1 1 
1 1 1 1 1 1 1 1 1 
1 1 1 1 1 1 1 1 1 
1 1 1 1 1 1 1 1 1 
1 1 1 1 1 1 1 1 1 
1 1 1 1 1 1 1 1 1 
1 1 1 1 1 1 1 1 1 
1 1 1 1 1 1 1 1 1 
1 1 1 1 1 1 1 1 1 
1 1 1 1 1 1 1 1 1 
1 1 1 1 1 1 1 1 1 
1 1 1 1 1 1 1 1 1 
1 1 1 1 1 1 1 1 1 
1 1 1 1 1 1 1 1 1 
1 1 1 1 1 1 1 1 1 
1 1 1 1 1 1 1 1 1 
1 1 1 1 1 1 1 1 1 
1 1 1 1 1 1 1 1 1 
1 1 1 1 1 1 1 1 1 
1 1 1 1 1 1 1 1 1 
1 1 1 1 1 1 1 1 1 
1 1 1 1 1 1 1 1 1 
1 1 1 1 1 1 1 1 1 
1 1 1 1 1 1 1 1 1 
1 1 1 1 1 1 1 1 1 
1 1 1 1 1 1 1 1 1 
1 1 1 1 1 1 1 1 1 
1 1 1 1 1 1 1 1 1 
1 1 1 1 1 1 1 1 1 
1 1 1 1 1 1 1 1 1 
1 1 1 1 1 1 1 1 1 
1 1 1 1 1 1 1 1 1 
1 1 1 1 1 1 1 1 1 
1 1 1 1 1 1 1 1 1 
1 1 1 1 1 1 1 1 1 
1 1 1 1 1 1 1 1 1 
1 1 1 1 1 1 1 1 1 
1 1 1 1 1 1 1 1 1 
1 1 1 1 1 1 1 1 1 
1 1 1 1 1 1 1 1 1 
1 1 1 1 1 1 1 1 1 
1 1 1 1 1 1 1 1 1 
1 1 1 1 1 1 1 1 1 
1 1 1 1 1 1 1 1 1 
1 1 1 1 1 1 1 1 1 
1 1 1 1 1 1 1 1 1 
1 1 1 1 1 1 1 1 1 
1 1 1 1 1 1 1 1 1 
1 1 1 1 1 1 1 1 1 
1 1 1 1 1 1 1 1 1 
1 1 1 1 1 1 1 1 1 
1 1 1 1 1 1 1 1 1 
1 1 1 1 1 1 1 1 1 
1 1 1 1 1 1 1 1 1 
1 1 1 1 1 1 1 1 1 
1 1 1 1 1 1 1 1 1 
1 1 1 1 1 1 1 1 1 
1 1 1 1 1 1 1 1 1 
1 1 1 1 1 1 1 1 1 
1 1 1 1 1 1 1 1 1 
1 1 1 1 1 1 1 1 1 
1 1 1 1 1 1 1 1 1 
1 1 1 1 1 1 1 1 1 
1 1 1 1 1 1 1 1 1 
1 1 1 1 1 1 1 1 1 
1 1 1 1 1 1 1 1 1 
1 1 1 1 1 1 1 1 1 
1 1 1 1 1 1 1 1 1 
1 1 1 1 1 1 1 1 1 
1 1 1 1 1 1 1 1 1 
1 1 1 1 1 1 1 1 1 
1 1 1 1 1 1 1 1 1 
1 1 1 1 1 1 1 1 1 
1 1 1 1 1 1 1 1 1 
1 1 1 1 1 1 1 1 1 
1 1 1 1 1 1 1 1 1 
1 1 1 1 1 1 1 1 1 
1 1 1 1 1 1 1 1 1 
1 1 1 1 1 1 1 1 1 
1 1 1 1 1 1 1 1 1 
1 1 1 1 1 1 1 1 1 
1 1 1 1 1 1 1 1 1 
1 1 1 1 1 1 1 1 1 
1 1 1 1 1 1 1 1 1 
1 1 1 1 1 1 1 1 1 
1 1 1 1 1 1 1 1 1 
1 1 1 1 1 1 1 1 1 
1 1 1 1 1 1 1 1 1 
1 1 1 1 1 1 1 1 1 
1 1 1 1 1 1 1 1 1 
1 1 1 1 1 1 1 1 1 
1 1 1 1 1 1 1 1 1 
1 1 1 1 1 1 1 1 1 
1 1 1 1 1 1 1 1 1 
1 1 1 1 1 1 1 1 1 
1 1 1 1 1 1 1 1 1 
1 1 1 1 1 1 1 1 1 
1 1 1 1 1 1 1 1 1 
1 1 1 1 1 1 1 1 1 
1 1 1 1 1 1 1 1 1 
1 1 1 1 1 1 1 1 1 
1 1 1 1 1 1 1 1 1 
1 1 1 1 1 1 1 1 1 
1 1 1 1 1 1 1 1 1 
1 1 1 1 1 1 1 1 1 
1 1 1 1 1 1 1 1 1 
1 1 1 1 1 1 1 1 1 
1 1 1 1 1 1 1 1 1 
1 1 1 1 1 1 1 1 1 
1 1 1 1 1 1 1 1 1 
1 1 1 1 1 1 1 1 1 
1 1 1 1 1 1 1 1 1 
1 1 1 1 1 1 1 1 1 
1 1 1 1 1 1 1 1 1 
1 1 1 1 1 1 1 1 1 
1 1 1 1 1 1 1 1 1 
1 1 1 1 1 1 1 1 1 
1 1 1 1 1 1 1 1 1 
1 1 1 1 1 1 1 1 1 
1 1 1 1 1 1 1 1 1 
1 1 1 1 1 1 1 1 1 
1 1 1 1 1 1 1 1 1 
1 1 1 1 1 1 1 1 1 
1 1 1 1 1 1 1 1 1 
1 1 1 1 1 1 1 1 1 
1 1 1 1 1 1 1 1 1 
1 1 1 1 1 1 1 1 1 
1 1 1 1 1 1 1 1 1 
1 1 1 1 1 1 1 1 1 
1 1 1 1 1 1 1 1 1 
1 1 1 1 1 1 1 1 1 
1 1 1 1 1 1 1 1 1 
1 1 1 1 1 1 1 1 1 
1 1 1 1 1 1 1 1 1 
1 1 1 1 1 1 1 1 1 
1 1 1 1 1 1 1 1 1 
1 1 1 1 1 1 1 1 1 
1 1 1 1 1 1 1 1 1 
1 1 1 1 1 1 1 1 1 
1 1 1 1 1 1 1 1 1 
1 1 1 1 1 1 1 1 1 
1 1 1 1 1 1 1 1 1 
1 1 1 1 1 1 1 1 1 
1 1 1 1 1 1 1 1 1 
1 1 1 1 1 1 1 1 1 
1 1 1 1 1 1 1 1 1 
1 1 1 1 1 1 1 1 1 
1 1 1 1 1 1 1 1 1 
1 1 1 1 1 1 1 1 1 
1 1 1 1 1 1 1 1 1 
1 1 1 1 1 1 1 1 1 
1 1 1 1 1 1 1 1 1 
1 1 1 1 1 1 1 1 1 
1 1 1 1 1 1 1 1 1 
1 1 1 1 1 1 1 1 1 
1 1 1 1 1 1 1 1 1 
1 1 1 1 1 1 1 1 1 
1 1 1 1 1 1 1 1 1 
1 1 1 1 1 1 1 1 1 
1 1 1 1 1 1 1 1 1 
1 1 1 1 1 1 1 1 1 
1 1 1 1 1 1 1 1 1 
1 1 1 1 1 1 1 1 1 
1 1 1 1 1 1 1 1 1 
1 1 1 1 1 1 1 1 1 
1 1 1 1 
NORMALS normals float
0 -0.0322413 -0.99948 0 -0.99948 -0.0322413 -0.695235 -0.0231745 -0.718409 
0.564732 -0.583557 -0.583557 -0.0322246 0.0322246 -0.998961 -0.706923 0.022804 -0.706923 
0.583557 -0.564732 -0.583557 0.0322413 0 -0.99948 0.707107 0 -0.707107 
-0.022804 0.706923 -0.706923 0.0231745 0.695235 -0.718409 -0.0322246 -0.0322246 -0.998961 
-0.0322246 -0.998961 -0.0322246 -0.706923 -0.706923 -0.022804 0.0332964 -0.0332964 -0.998891 
0.0322413 -0.99948 0 0.99948 -0.0322413 0 -0.0322246 -0.0322246 -0.998961 
-0.706923 -0.706923 -0.022804 -0.706923 -0.706923 -0.022804 0 0 -1 
0.0333148 0 -0.999445 1 0 0 -0.0322246 -0.0322246 -0.998961 
-0.706923 -0.706923 -0.022804 -0.998961 -0.0322246 -0.0322246 0 0 -1 
0 0 -1 0.0322246 0.0322246 -0.998961 0.998961 0.0322246 -0.0322246 
-0.0322246 0.0322246 -0.998961 -0.998961 0.0322246 -0.0322246 0 0.0322413 -0.99948 
0.0322246 0.0322246 -0.998961 0.57735 0.57735 -0.57735 0.57735 0.57735 -0.57735 
-0.0322246 0.998961 -0.0322246 0 0.99948 -0.0322413 0.0322246 0.998961 -0.0322246 
-0.0322246 -0.0322246 -0.998961 -0.022804 -0.706923 -0.706923 -0.706923 -0.706923 -0.022804 
0 -0.0322413 -0.99948 0 -0.707107 -0.707107 0 -0.0322413 -0.99948 
0 -0.707107 -0.707107 0 -0.0322413 -0.99948 0 -0.707107 -0.707107 
-0.695235 -0.0231745 -0.718409 0 -0.707107 -0.707107 0 -0.718602 -0.695421 
0.564732 -0.583557 -0.583557 0 -0.707107 -0.707107 0.0322246 -0.0322246 -0.998961 
0.022804 -0.706923 -0.706923 0.998961 -0.0322246 -0.0322246 -0.0322246 -0.0322246 -0.998961 
-0.706923 -0.706923 -0.022804 -0.706923 -0.706923 -0.022804 0 0 -1 
0 0 -1 0 0 -1 0 0 -1 
-0.695421 0 -0.718602 0.707107 0 -0.707107 0.99948 0 -0.0322413 
-0.0322246 -0.0322246 -0.998961 -0.706923 -0.706923 -0.022804 -0.998961 -0.0322246 -0.0322246 
0 0 -1 0 0 -1 0 0 -1 
0 0 -1 0 0 -1 0 0 -1 
0 0.695421 -0.718602 0 0.695421 -0.718602 0.0322413 0 -0.99948 
0.99948 0 -0.0322413 -0.0322413 0 -0.99948 -0.99948 0 -0.0322413 
0 0 -1 0 0 -1 0 0 -1 
0 0 -1 0 0 -1 0 0 -1 
0 0 -1 0 0 -1 0.0322413 0 -0.99948 
0.99948 0 -0.0322413 -0.0322413 0 -0.99948 -0.99948 0 -0.0322413 
0 0 -1 0 0 -1 0 0 -1 
0 0 -1 0 0 -1 0 0 -1 
0 0 -1 0 0 -1 0.0322413 0 -0.99948 
0.99948 0 -0.0322413 -0.0322413 0 -0.99948 -0.99948 0 -0.0322413 
0 0 -1 0 0 -1 0 0 -1 
0 0 -1 0 0 -1 0 0 -1 
0 0 -1 0 0 -1 0.0322413 0 -0.99948 
0.99948 0 -0.0322413 -0.0322413 0 -0.99948 -0.99948 0 -0.0322413 
0 0 -1 0 0 -1 0 0 -1 
0 0 -1 0 0 -1 0 0 -1 
0 0 -1 0 0 -1 0.0322413 0 -0.99948 
0.99948 0 -0.0322413 -0.0322246 0.0322246 -0.998961 -0.706923 0.022804 -0.706923 
0 0.0322413 -0.99948 0 0.0322413 -0.99948 0 0.0322413 -0.99948 
0 0.0322413 -0.99948 0 0.0322413 -0.99948 0 0 -1 
0 0 -1 0 0 -1 0.0322413 0 -0.99948 
0.99948 0 -0.0322413 -0.0322246 0.998961 -0.0322246 0 0.99948 -0.0322413 
0 0.99948 -0.0322413 0 0.99948 -0.0322413 0 0.99948 -0.0322413 
-0.564732 0.583557 -0.583557 -0.583557 0.564732 -0.583557 -0.0322413 0 -0.99948 
0 0 -1 0 0 -1 0.0322246 0.0322246 -0.998961 
0.998961 0.0322246 -0.0322246 -0.0322246 0.0322246 -0.998961 -0.706923 0.022804 -0.706923 
0 0.0322413 -0.99948 0.0322246 0.0322246 -0.998961 0.57735 0.57735 -0.57735 
0.57735 0.57735 -0.57735 -0.0322246 0.998961 -0.0322246 0 0.99948 -0.0322413 
0.0322246 0.998961 -0.0322246 0 -0.99948 0.0322413 -0.695235 -0.718409 0.0231745 
0.718409 -0.0231745 0.695235 0.695235 -0.0231745 0.718409 -0.707107 -0.707107 0 
-0.707107 -0.707107 0 0.589968 -0.570937 0.570937 0.583557 -0.564732 0.583557 
-0.707107 -0.707107 0 -0.99948 -0.0322413 0 0.583557 -0.583557 0.564732 
0.99948 -0.0322413 0 -0.99948 0.0322413 0 0.583557 0.583557 -0.564732 
0.99948 0.0322413 0 -0.0231745 0.718409 -0.695235 0 0.718602 -0.695421 
0 1 0 0.0322413 0.99948 0 0 -0.0322413 -0.99948 
0 -0.707107 -0.707107 -0.564732 -0.583557 -0.583557 0.695235 -0.0231745 -0.718409 
-0.022804 -0.706923 -0.706923 -0.022804 -0.706923 -0.706923 -0.998961 -0.0322246 -0.0322246 
0 -0.707107 -0.707107 0 -0.707107 -0.707107 0 -0.707107 -0.707107 
0 -0.707107 -0.707107 0 -0.707107 -0.707107 0 -0.707107 -0.707107 
0 -0.707107 -0.707107 0 -0.707107 -0.707107 0 -0.707107 -0.707107 
0 -0.707107 -0.707107 0 -0.707107 -0.707107 -0.564732 -0.583557 -0.583557 
0.0231745 -0.695235 -0.718409 0.707107 0 -0.707107 -0.718602 -0.695421 0 
0.718602 0 -0.695421 -0.707107 -0.707107 0 -0.707107 -0.707107 0 
0.718602 0 -0.695421 -0.707107 -0.707107 0 -0.99948 -0.0322413 0 
0.718602 0 -0.695421 -1 0 0 0.718602 0 -0.695421 
-1 0 0 0.718602 0 -0.695421 -1 0 0 
0.718602 0 -0.695421 -0.718602 -0.695421 0 0.718602 0 -0.695421 
-0.707107 0 -0.707107 -0.718409 -0.695235 -0.0231745 -0.99948 0 -0.0322413 
0.718602 0 -0.695421 -0.0231745 0.695235 -0.718409 0 0.718602 -0.695421 
0 0.718602 -0.695421 0 0.718602 -0.695421 0 0.718602 -0.695421 
-0.570937 0.589968 -0.570937 -0.583557 0.564732 -0.583557 -0.583557 0.564732 -0.583557 
0.718602 0 -0.695421 -0.706923 0.022804 -0.706923 -0.706923 0.022804 -0.706923 
0.583557 0.564732 -0.583557 0.707107 0 -0.707107 -0.022804 0.706923 -0.706923 
0 0.718602 -0.695421 0 0.718602 -0.695421 -0.570937 0.589968 -0.570937 
0 0 -1 -0.570937 0.570937 -0.589968 0.695421 0 -0.718602 
0 0.0322413 -0.99948 -0.695235 0.0231745 -0.718409 0.695235 0.0231745 -0.718409 
0 0.707107 -0.707107 0 -0.0322413 0.99948 0 -0.99948 0.0322413 
-0.695235 -0.718409 0.0231745 0.583557 -0.564732 0.583557 0.564732 -0.583557 0.583557 
-0.0322246 -0.0322246 -0.998961 -0.0322246 -0.998961 -0.0322246 -0.706923 -0.706923 -0.022804 
0.0332964 -0.0332964 -0.998891 0.0322413 -0.99948 0 0.99948 -0.0322413 0 
-0.707107 -0.707107 0 -0.99948 -0.0322413 0 0.570937 -0.589968 0.570937 
0.0332964 -0.998891 0.0332964 0.99948 0 0.0322413 -0.0333148 0 -0.999445 
-0.718602 -0.695421 0 -1 0 0 0 0 -1 
0.0322413 0 -0.99948 0.718409 -0.695235 -0.0231745 -1 0 0 
0.583557 0.583557 0.564732 0.57735 0.57735 0.57735 0.583557 0.564732 0.583557 
-0.718602 0 -0.695421 -0.707107 0 -0.707107 -0.0322413 0 -0.99948 
0 0 -1 0.695235 -0.718409 -0.0231745 0 -0.0322413 -0.99948 
0.0332964 -0.0332964 -0.998891 0.0322413 -0.99948 0 0.99948 -0.0322413 0 
-0.0231745 0.695235 -0.718409 -0.718409 -0.695235 -0.0231745 0.0231745 0.695235 -0.718409 
0.718409 0.695235 -0.0231745 0.706923 0.706923 0.022804 -0.0322246 -0.0322246 -0.998961 
-0.706923 -0.022804 -0.706923 -0.706923 -0.706923 -0.022804 0 0 -1 
0 0 -1 0 0 -1 0.0322413 0 -0.99948 
0.0332964 -0.998891 -0.0332964 -0.022804 -0.706923 -0.706923 -0.706923 -0.706923 -0.022804 
-0.0322246 -0.998961 -0.0322246 0 0 -1 0.0322413 0 -0.99948 
0.99948 0 -0.0322413 -0.022804 -0.706923 -0.706923 -0.706923 -0.706923 -0.022804 
-0.998961 -0.0322246 -0.0322246 0 -0.695421 -0.718602 0 -0.695421 -0.718602 
0 -0.695421 -0.718602 0 -0.695421 -0.718602 0 -0.695421 -0.718602 
0 -0.99948 -0.0322413 -0.564732 -0.583557 -0.583557 0.695421 0 -0.718602 
0.0322413 0 -0.99948 0.99948 0 -0.0322413 -1 0 0 
0.695421 0 -0.718602 0.0322413 0 -0.99948 0.99948 0 -0.0322413 
-0.718602 -0.695421 0 0.695421 0 -0.718602 0.0322413 0 -0.99948 
0.99948 0 -0.0322413 -0.706923 -0.706923 0.022804 -0.706923 -0.706923 0.022804 
0.695421 0 -0.718602 0.0322413 0 -0.99948 0.99948 0 -0.0322413 
-0.707107 -0.707107 0 -0.99948 -0.0322413 0 0.695421 0 -0.718602 