# vtk DataFile Version 3.0
vtk output
ASCII
DATASET POLYDATA
POINTS 5460 float
87 22 77.0222 87 21.0222 78 86.0222 22 78 
88 22 77.0222 88 21.0222 78 89 22 77.0222 
89 21.0222 78 90 22 77.0222 90 21.0222 78 
90.9778 22 78 86 23 77.0222 86 22.0222 78 
85.0222 23 78 87 23 77.0222 88 23 77.0222 
89 23 77.0222 89.9778 23 78 90 22.9778 78 
85 24 77.0222 85 23.0222 78 84.0222 24 78 
86 24 77.0222 86.9778 24 78 87 23.9778 78 
88 23.9778 78 89 23.9778 78 85 25 77.0222 
84.0222 25 78 85.9778 25 78 86 24.9778 78 
85 25.9778 78 83 28 77.0222 83 27.0222 78 
82.0222 28 78 84 28 77.0222 84 27.0222 78 
84.9778 28 78 83 29 77.0222 82.0222 29 78 
83.9778 29 78 84 28.9778 78 83 29.9778 78 
81 32 77.0222 81 31.0222 78 80.0222 32 78 
82 32 77.0222 82 31.0222 78 82.9778 32 78 
81 33 77.0222 80.0222 33 78 81.9778 33 78 
82 32.9778 78 81 33.9778 78 87 21.0222 79 
86.0222 22 79 88 21.0222 79 89 21.0222 79 
90 22 78.9778 89.9778 22 79 86 23 78.9778 
87 22.9778 79 87 23 78.9778 88 22.9778 79 
88 23 78.9778 89 22.9778 79 89 23 78.9778 
85 23.0222 79 84.0222 24 79 86 24 78.9778 
85.9778 24 79 85 24.9778 79 85 25 78.9778 
83 27.0222 79 82.0222 28 79 84 28 78.9778 
83.9778 28 79 83 28.9778 79 83 29 78.9778 
81 31.0222 79 80.0222 32 79 82 32 78.9778 
81.9778 32 79 81 32.9778 79 81 33 78.9778 
87 22 79.9778 88 22 79.9778 89 22 79.9778 
85 24 79.9778 83 28 79.9778 81 32 79.9778 
83 27 82.0222 83 26.0222 83 82.0222 27 83 
83.9778 27 83 83 27.9778 83 85 24 83.0222 
85 23.0222 84 84.0222 24 84 86 24 83.0222 
86 23.0222 84 86.9778 24 84 84 25 83.0222 
84 24.0222 84 83.0222 25 84 85 25 83.0222 
85.9778 25 84 86 24.9778 84 83 26 83.0222 
83 25.0222 84 82.0222 26 84 84 26 83.0222 
84.9778 26 84 85 25.9778 84 82.0222 27 84 
84 27 83.0222 84.9778 27 84 83 28 83.0222 
82.0222 28 84 84 28 83.0222 84.9778 28 84 
82 29 83.0222 82 28.0222 84 81.0222 29 84 
83 29 83.0222 83.9778 29 84 84 28.9778 84 
81 30 83.0222 81 29.0222 84 80.0222 30 84 
82 30 83.0222 82.9778 30 84 83 29.9778 84 
81 31 83.0222 80.0222 31 84 81.9778 31 84 
82 30.9778 84 81 31.9778 84 84 24 84.0222 
84 23.0222 85 83.0222 24 85 85 23.0222 85 
86 23.0222 85 86.9778 24 85 88 24 84.0222 
88 23.0222 85 87.0222 24 85 88.9778 24 85 
82 25 84.0222 82 24.0222 85 81.0222 25 85 
83 25 84.0222 83 24.0222 85 86 25 84.0222 
86.9778 25 85 88 25 84.0222 87.0222 25 85 
89 24.0222 85 89 25 84.0222 89.9778 25 85 
82 26 84.0222 81.0222 26 85 84.9778 26 85 
85 25.9778 85 86 25.9778 85 88 25.9778 85 
89 25.9778 85 82 27 84.0222 81.0222 27 85 
84.9778 27 85 82 28 84.0222 81.0222 28 85 
84.9778 28 85 80 29 84.0222 80 28.0222 85 
79.0222 29 85 81 29 84.0222 81 28.0222 85 
84 29 84.0222 84.9778 29 85 80 30 84.0222 
79.0222 30 85 82.9778 30 85 83 29.9778 85 
84 29.9778 85 80 31 84.0222 79.0222 31 85 
82 31 84.0222 82.9778 31 85 80 32 84.0222 
79.0222 32 85 81 31.9778 85 80.9778 32 85 
82 31.9778 85 79 33 84.0222 79 32.0222 85 
78.0222 33 85 80 33 84.0222 80.9778 33 85 
78 34 84.0222 78 33.0222 85 77.0222 34 85 
79 33.9778 85 78.9778 34 85 80 33.9778 85 
78 35 84.0222 77.0222 35 85 78.9778 35 85 
78 36 84.0222 77.0222 36 85 78.9778 36 85 
77 37 84.0222 77 36.0222 85 76.0222 37 85 
78 37 84.0222 78.9778 37 85 77 37.9778 85 
78 37.9778 85 76 40 84.0222 76 39.0222 85 
75.0222 40 85 76.9778 40 85 75 41 84.0222 
75 40.0222 85 74.0222 41 85 76 41 84.0222 
76.9778 41 85 75 41.9778 85 76 41.9778 85 
81 24 85.0222 81 23.0222 86 80.0222 24 86 
82 24 85.0222 82 23.0222 86 83 24 85.0222 
83 23.0222 86 84 23.0222 86 85 23.0222 86 
86 23.0222 86 87 24 85.0222 87 23.0222 86 
88 23.0222 86 89 24 85.0222 89 23.0222 86 
90 24 85.0222 90 23.0222 86 90.9778 24 86 
81 25 85.0222 80.0222 25 86 87 25 85.0222 
90 25 85.0222 90.9778 25 86 81 26 85.0222 
80.0222 26 86 85 26 85.0222 86 26 85.0222 
87 26 85.0222 88 26 85.0222 89 26 85.0222 
90 26 85.0222 91 25.0222 86 91 26 85.0222 
92 26 85.0222 92 25.0222 86 92.9778 26 86 
80 27 85.0222 80 26.0222 86 79.0222 27 86 
81 27 85.0222 85 27 85.0222 86 27 85.0222 
87 27 85.0222 88 27 85.0222 89 27 85.0222 
90 27 85.0222 91 27 85.0222 92 27 85.0222 
92.9778 27 86 79 28 85.0222 79 27.0222 86 
78.0222 28 86 80 28 85.0222 81 28 85.0222 
85 28 85.0222 86 28 85.0222 87 28 85.0222 
88 28 85.0222 89 28 85.0222 90 28 85.0222 
91 28 85.0222 92 28 85.0222 92.9778 28 86 
79 29 85.0222 78.0222 29 86 85 29 85.0222 
86 29 85.0222 87 29 85.0222 88 29 85.0222 
89 29 85.0222 90 29 85.0222 91 29 85.0222 
92 29 85.0222 92.9778 29 86 79 30 85.0222 
78.0222 30 86 83 30 85.0222 84 30 85.0222 
85 30 85.0222 86 30 85.0222 87 30 85.0222 
88 30 85.0222 89 30 85.0222 90 30 85.0222 
91 30 85.0222 92 30 85.0222 93 29.0222 86 
93 30 85.0222 94 30 85.0222 94 29.0222 86 
94.9778 30 86 79 31 85.0222 78.0222 31 86 
83 31 85.0222 84 31 85.0222 85 31 85.0222 
86 31 85.0222 87 31 85.0222 88 31 85.0222 
89 31 85.0222 90 31 85.0222 91 31 85.0222 
92 31 85.0222 93 31 85.0222 94 31 85.0222 
94.9778 31 86 79 32 85.0222 78.0222 32 86 
81 32 85.0222 82 32 85.0222 83 32 85.0222 
84 32 85.0222 85 32 85.0222 86 32 85.0222 
87 32 85.0222 88 32 85.0222 89 32 85.0222 
90 32 85.0222 91 32 85.0222 92 32 85.0222 
93 32 85.0222 94 32 85.0222 94.9778 32 86 
78 33 85.0222 78 32.0222 86 77.0222 33 86 
81 33 85.0222 82 33 85.0222 83 33 85.0222 
84 33 85.0222 85 33 85.0222 86 33 85.0222 
87 33 85.0222 88 33 85.0222 89 33 85.0222 
90 33 85.0222 91 33 85.0222 92 33 85.0222 
93 33 85.0222 94 33 85.0222 94.9778 33 86 
77 34 85.0222 77 33.0222 86 76.0222 34 86 
79 34 85.0222 80 34 85.0222 81 34 85.0222 
82 34 85.0222 83 34 85.0222 84 34 85.0222 
85 34 85.0222 86 34 85.0222 87 34 85.0222 
88 34 85.0222 89 34 85.0222 90 34 85.0222 
91 34 85.0222 92 34 85.0222 93 34 85.0222 
94 34 85.0222 94.9778 34 86 77 35 85.0222 
76.0222 35 86 79 35 85.0222 80 35 85.0222 
81 35 85.0222 82 35 85.0222 83 35 85.0222 
84 35 85.0222 85 35 85.0222 86 35 85.0222 
87 35 85.0222 88 35 85.0222 89 35 85.0222 
90 35 85.0222 91 35 85.0222 92 35 85.0222 
93 35 85.0222 94 35 85.0222 94.9778 35 86 
77 36 85.0222 76.0222 36 86 79 36 85.0222 
80 36 85.0222 81 36 85.0222 82 36 85.0222 
83 36 85.0222 84 36 85.0222 84.9778 36 86 
85 35.9778 86 86 35.9778 86 87 35.9778 86 
88 35.9778 86 89 35.9778 86 90 35.9778 86 
91 35.9778 86 92 35.9778 86 92.0222 36 86 
93 36 85.0222 94 36 85.0222 94.9778 36 86 
76.0222 37 86 79 37 85.0222 80 37 85.0222 
81 37 85.0222 82 37 85.0222 83 37 85.0222 
84 37 85.0222 84.9778 37 86 93 37 85.0222 
92.0222 37 86 94 37 85.0222 94.9778 37 86 
77 38 85.0222 76.0222 38 86 78 38 85.0222 
79 38 85.0222 80 38 85.0222 81 38 85.0222 
82 38 85.0222 83 38 85.0222 84 38 85.0222 
84.9778 38 86 93 38 85.0222 92.0222 38 86 
94 38 85.0222 94.9778 38 86 76 39 85.0222 
76 38.0222 86 75.0222 39 86 77 39 85.0222 
78 39 85.0222 79 39 85.0222 80 39 85.0222 
81 39 85.0222 82 39 85.0222 83 39 85.0222 
83.9778 39 86 84 38.9778 86 93 39 85.0222 
92.0222 39 86 93.9778 39 86 94 38.9778 86 
75 40 85.0222 75 39.0222 86 74.0222 40 86 
77 40 85.0222 78 40 85.0222 79 40 85.0222 
80 40 85.0222 81 40 85.0222 82 40 85.0222 
82.9778 40 86 83 39.9778 86 93 39.9778 86 
74.0222 41 86 77 41 85.0222 78 41 85.0222 
79 41 85.0222 80 41 85.0222 81 41 85.0222 
82 41 85.0222 82.9778 41 86 75 42 85.0222 
74.0222 42 86 76 42 85.0222 77 42 85.0222 
78 42 85.0222 79 42 85.0222 80 42 85.0222 
81 42 85.0222 82 42 85.0222 82.9778 42 86 
75 43 85.0222 74.0222 43 86 76 43 85.0222 
77 43 85.0222 78 43 85.0222 79 43 85.0222 
80 43 85.0222 81 43 85.0222 82 43 85.0222 
82.9778 43 86 75 44 85.0222 74.0222 44 86 
76 44 85.0222 77 44 85.0222 78 44 85.0222 
79 44 85.0222 80 44 85.0222 81 44 85.0222 
82 44 85.0222 82.9778 44 86 74 45 85.0222 
74 44.0222 86 73.0222 45 86 75 45 85.0222 
76 45 85.0222 77 45 85.0222 78 45 85.0222 
79 45 85.0222 80 45 85.0222 81 45 85.0222 
81.9778 45 86 82 44.9778 86 73 46 85.0222 
73 45.0222 86 72.0222 46 86 74 46 85.0222 
75 46 85.0222 76 46 85.0222 76.9778 46 86 
77 45.9778 86 78 45.9778 86 79 45.9778 86 
80 45.9778 86 81 45.9778 86 73 47 85.0222 
72.0222 47 86 74 47 85.0222 75 47 85.0222 
75.9778 47 86 76 46.9778 86 73 47.9778 86 
74 47.9778 86 75 47.9778 86 81 23.0222 87 
80.0222 24 87 82 23.0222 87 83 23.0222 87 
84 23.0222 87 85 23.0222 87 86 23.0222 87 
87 23.0222 87 88 23.0222 87 89 23.0222 87 
90 23.0222 87 90.9778 24 87 80.0222 25 87 
90.9778 25 87 80.0222 26 87 91 25.0222 87 
92 25.0222 87 92.9778 26 87 80 26.0222 87 
79.0222 27 87 92.9778 27 87 79 27.0222 87 
78.0222 28 87 92.9778 28 87 78.0222 29 87 
92.9778 29 87 78.0222 30 87 93 29.0222 87 
94 29.0222 87 94.9778 30 87 78.0222 31 87 
94.9778 31 87 78.0222 32 87 94.9778 32 87 
78 32.0222 87 77.0222 33 87 94.9778 33 87 
77 33.0222 87 76.0222 34 87 94.9778 34 87 
76.0222 35 87 94.9778 35 87 76.0222 36 87 
84.9778 36 87 85 35.9778 87 86 35.9778 87 
87 35.9778 87 88 35.9778 87 89 35.9778 87 
90 35.9778 87 91 35.9778 87 92 36 86.0222 
91.0222 36 87 94.9778 36 87 76.0222 37 87 
84.9778 37 87 92 37 86.0222 91.0222 37 87 
94.9778 37 87 76.0222 38 87 84.9778 38 87 
92 38 86.0222 91.0222 38 87 94.9778 38 87 
76 38.0222 87 75.0222 39 87 84 39 86.0222 
84.9778 39 87 92 39 86.0222 91.0222 39 87 
93.9778 39 87 94 38.9778 87 75 39.0222 87 
74.0222 40 87 82.9778 40 87 83 39.9778 87 
84 39.9778 87 92 39.9778 87 93 39.9778 87 
74.0222 41 87 82.9778 41 87 74.0222 42 87 
82.9778 42 87 74.0222 43 87 82.9778 43 87 
74.0222 44 87 82.9778 44 87 74 44.0222 87 
73.0222 45 87 82 45 86.0222 82.9778 45 87 
73 45.0222 87 72.0222 46 87 76.9778 46 87 
77 45.9778 87 78 45.9778 87 79 45.9778 87 
80 45.9778 87 81 45.9778 87 82 45.9778 87 
72.0222 47 87 75.9778 47 87 76 46.9778 87 
73 47.9778 87 74 47.9778 87 75 47.9778 87 
81 23.0222 88 80.0222 24 88 82 23.0222 88 
83 23.0222 88 84 23.0222 88 85 23.0222 88 
86 23.0222 88 87 23.0222 88 88 23.0222 88 
89 23.0222 88 90 23.0222 88 90.9778 24 88 
80.0222 25 88 90.9778 25 88 80.0222 26 88 
91 25.0222 88 92 25.0222 88 92.9778 26 88 
80 26.0222 88 79.0222 27 88 92.9778 27 88 
79 27.0222 88 78.0222 28 88 92.9778 28 88 
78.0222 29 88 92.9778 29 88 78.0222 30 88 
93 29.0222 88 94 29.0222 88 94.9778 30 88 
[...]
POINT_DATA 5460
SCALARS scalars float
LOOKUP_TABLE default
1 1 1 1 1 1 1 1 1 
1 1 1 1 1 1 1 1 1 
1 1 1 1 1 1 1 1 1 
1 1 1 1 1 1 1 1 1 
1 1 1 1 1 1 1 1 1 
1 1 1 1 1 1 1 1 1 
1 1 1 1 1 1 1 1 1 
1 1 1 1 1 1 1 1 1 
1 1 1 1 1 1 1 1 1 
1 1 1 1 1 1 1 1 1 
1 1 1 1 1 1 1 1 1 
1 1 1 1 1 1 1 1 1 
1 1 1 1 1 1 1 1 1 
1 1 1 1 1 1 1 1 1 
1 1 1 1 1 1 1 1 1 
1 1 1 1 1 1 1 1 1 
1 1 1 1 1 1 1 1 1 
1 1 1 1 1 1 1 1 1 
1 1 1 1 1 1 1 1 1 
1 1 1 1 1 1 1 1 1 
1 1 1 1 1 1 1 1 1 
1 1 1 1 1 1 1 1 1 
1 1 1 1 1 1 1 1 1 
1 1 1 1 1 1 1 1 1 
1 1 1 1 1 1 1 1 1 
1 1 1 1 1 1 1 1 1 
1 1 1 1 1 1 1 1 1 
1 1 1 1 1 1 1 1 1 
1 1 1 1 1 1 1 1 1 
1 1 1 1 1 1 1 1 1 
1 1 1 1 1 1 1 1 1 
1 1 1 1 1 1 1 1 1 
1 1 1 1 1 1 1 1 1 
1 1 1 1 1 1 1 1 1 
1 1 1 1 1 1 1 1 1 
1 1 1 1 1 1 1 1 1 
1 1 1 1 1 1 1 1 1 
1 1 1 1 1 1 1 1 1 
1 1 1 1 1 1 1 1 1 
1 1 1 1 1 1 1 1 1 
1 1 1 1 1 1 1 1 1 
1 1 1 1 1 1 1 1 1 
1 1 1 1 1 1 1 1 1 
1 1 1 1 1 1 1 1 1 
1 1 1 1 1 1 1 1 1 
1 1 1 1 1 1 1 1 1 
1 1 1 1 1 1 1 1 1 
1 1 1 1 1 1 1 1 1 
1 1 1 1 1 1 1 1 1 
1 1 1 1 1 1 1 1 1 
1 1 1 1 1 1 1 1 1 
1 1 1 1 1 1 1 1 1 
1 1 1 1 1 1 1 1 1 
1 1 1 1 1 1 1 1 1 
1 1 1 1 1 1 1 1 1 
1 1 1 1 1 1 1 1 1 
1 1 1 1 1 1 1 1 1 
1 1 1 1 1 1 1 1 1 
1 1 1 1 1 1 1 1 1 
1 1 1 1 1 1 1 1 1 
1 1 1 1 1 1 1 1 1 
1 1 1 1 1 1 1 1 1 
1 1 1 1 1 1 1 1 1 
1 1 1 1 1 1 1 1 1 
1 1 1 1 1 1 1 1 1 
1 1 1 1 1 1 1 1 1 
1 1 1 1 1 1 1 1 1 
1 1 1 1 1 1 1 1 1 
1 1 1 1 1 1 1 1 1 
1 1 1 1 1 1 1 1 1 
1 1 1 1 1 1 1 1 1 
1 1 1 1 1 1 1 1 1 
1 1 1 1 1 1 1 1 1 
1 1 1 1 1 1 1 1 1 
1 1 1 1 1 1 1 1 1 
1 1 1 1 1 1 1 1 1 
1 1 1 1 1 1 1 1 1 
1 1 1 1 1 1 1 1 1 
1 1 1 1 1 1 1 1 1 
1 1 1 1 1 1 1 1 1 
1 1 1 1 1 1 1 1 1 
1 1 1 1 1 1 1 1 1 
1 1 1 1 1 1 1 1 1 
1 1 1 1 1 1 1 1 1 
1 1 1 1 1 1 1 1 1 
1 1 1 1 1 1 1 1 1 
1 1 1 1 1 1 1 1 1 
1 1 1 1 1 1 1 1 1 
1 1 1 1 1 1 1 1 1 
1 1 1 1 1 1 1 1 1 
1 1 1 1 1 1 1 1 1 
1 1 1 1 1 1 1 1 1 
1 1 1 1 1 1 1 1 1 
1 1 1 1 1 1 1 1 1 
1 1 1 1 1 1 1 1 1 
1 1 1 1 1 1 1 1 1 
1 1 1 1 1 1 1 1 1 
1 1 1 1 1 1 1 1 1 
1 1 1 1 1 1 1 1 1 
1 1 1 1 1 1 1 1 1 
1 1 1 1 1 1 1 1 1 
1 1 1 1 1 1 1 1 1 
1 1 1 1 1 1 1 1 1 
1 1 1 1 1 1 1 1 1 
1 1 1 1 1 1 1 1 1 
1 1 1 1 1 1 1 1 1 
1 1 1 1 1 1 1 1 1 
1 1 1 1 1 1 1 1 1 
1 1 1 1 1 1 1 1 1 
1 1 1 1 1 1 1 1 1 
1 1 1 1 1 1 1 1 1 
1 1 1 1 1 1 1 1 1 
1 1 1 1 1 1 1 1 1 
1 1 1 1 1 1 1 1 1 
1 1 1 1 1 1 1 1 1 
1 1 1 1 1 1 1 1 1 
1 1 1 1 1 1 1 1 1 
1 1 1 1 1 1 1 1 1 
1 1 1 1 1 1 1 1 1 
1 1 1 1 1 1 1 1 1 
1 1 1 1 1 1 1 1 1 
1 1 1 1 1 1 1 1 1 
1 1 1 1 1 1 1 1 1 
1 1 1 1 1 1 1 1 1 
1 1 1 1 1 1 1 1 1 
1 1 1 1 1 1 1 1 1 
1 1 1 1 1 1 1 1 1 
1 1 1 1 1 1 1 1 1 
1 1 1 1 1 1 1 1 1 
1 1 1 1 1 1 1 1 1 
1 1 1 1 1 1 1 1 1 
1 1 1 1 1 1 1 1 1 
1 1 1 1 1 1 1 1 1 
1 1 1 1 1 1 1 1 1 
1 1 1 1 1 1 1 1 1 
1 1 1 1 1 1 1 1 1 
1 1 1 1 1 1 1 1 1 
1 1 1 1 1 1 1 1 1 
1 1 1 1 1 1 1 1 1 
1 1 1 1 1 1 1 1 1 
1 1 1 1 1 1 1 1 1 
1 1 1 1 1 1 1 1 1 
1 1 1 1 1 1 1 1 1 
1 1 1 1 1 1 1 1 1 
1 1 1 1 1 1 1 1 1 
1 1 1 1 1 1 1 1 1 
1 1 1 1 1 1 1 1 1 
1 1 1 1 1 1 1 1 1 
1 1 1 1 1 1 1 1 1 
1 1 1 1 1 1 1 1 1 
1 1 1 1 1 1 1 1 1 
1 1 1 1 1 1 1 1 1 
1 1 1 1 1 1 1 1 1 
1 1 1 1 1 1 1 1 1 
1 1 1 1 1 1 1 1 1 
1 1 1 1 1 1 1 1 1 
1 1 1 1 1 1 1 1 1 
1 1 1 1 1 1 1 1 1 
1 1 1 1 1 1 1 1 1 
1 1 1 1 1 1 1 1 1 
1 1 1 1 1 1 1 1 1 
1 1 1 1 1 1 1 1 1 
1 1 1 1 1 1 1 1 1 
1 1 1 1 1 1 1 1 1 
1 1 1 1 1 1 1 1 1 
1 1 1 1 1 1 1 1 1 
1 1 1 1 1 1 1 1 1 
1 1 1 1 1 1 1 1 1 
1 1 1 1 1 1 1 1 1 
1 1 1 1 1 1 1 1 1 
1 1 1 1 1 1 1 1 1 
1 1 1 1 1 1 1 1 1 
1 1 1 1 1 1 1 1 1 
1 1 1 1 1 1 1 1 1 
1 1 1 1 1 1 1 1 1 
1 1 1 1 1 1 1 1 1 
1 1 1 1 1 1 1 1 1 
1 1 1 1 1 1 1 1 1 
1 1 1 1 1 1 1 1 1 
1 1 1 1 1 1 1 1 1 
1 1 1 1 1 1 1 1 1 
1 1 1 1 1 1 1 1 1 
1 1 1 1 1 1 1 1 1 
1 1 1 1 1 1 1 1 1 
1 1 1 1 1 1 1 1 1 
1 1 1 1 1 1 1 1 1 
1 1 1 1 1 1 1 1 1 
1 1 1 1 1 1 1 1 1 
1 1 1 1 1 1 1 1 1 
1 1 1 1 1 1 1 1 1 
1 1 1 1 1 1 1 1 1 
1 1 1 1 1 1 1 1 1 
1 1 1 1 1 1 1 1 1 
1 1 1 1 1 1 1 1 1 
1 1 1 1 1 1 1 1 1 
1 1 1 1 1 1 1 1 1 
1 1 1 1 1 1 1 1 1 
1 1 1 1 1 1 1 1 1 
1 1 1 1 1 1 1 1 1 
1 1 1 1 1 1 1 1 1 
1 1 1 1 1 1 1 1 1 
1 1 1 1 1 1 1 1 1 
1 1 1 1 1 1 1 1 1 
1 1 1 1 1 1 1 1 1 
1 1 1 1 1 1 1 1 1 
1 1 1 1 1 1 1 1 1 
1 1 1 1 1 1 1 1 1 
1 1 1 1 1 1 1 1 1 
1 1 1 1 1 1 1 1 1 
1 1 1 1 1 1 1 1 1 
1 1 1 1 1 1 1 1 1 
1 1 1 1 1 1 1 1 1 
1 1 1 1 1 1 1 1 1 
1 1 1 1 1 1 1 1 1 
1 1 1 1 1 1 1 1 1 
1 1 1 1 1 1 1 1 1 
1 1 1 1 1 1 1 1 1 
1 1 1 1 1 1 1 1 1 
1 1 1 1 1 1 1 1 1 
1 1 1 1 1 1 1 1 1 
1 1 1 1 1 1 1 1 1 
1 1 1 1 1 1 1 1 1 
1 1 1 1 1 1 1 1 1 
1 1 1 1 1 1 1 1 1 
1 1 1 1 1 1 1 1 1 
1 1 1 1 1 1 1 1 1 
1 1 1 1 1 1 1 1 1 
1 1 1 1 1 1 1 1 1 
1 1 1 1 1 1 1 1 1 
1 1 1 1 1 1 1 1 1 
1 1 1 1 1 1 1 1 1 
1 1 1 1 1 1 1 1 1 
1 1 1 1 1 1 1 1 1 
1 1 1 1 1 1 1 1 1 
1 1 1 1 1 1 1 1 1 
1 1 1 1 1 1 1 1 1 
1 1 1 1 1 1 1 1 1 
1 1 1 1 1 1 1 1 1 
1 1 1 1 1 1 1 1 1 
1 1 1 1 1 1 1 1 1 
1 1 1 1 1 1 1 1 1 
1 1 1 1 1 1 1 1 1 
1 1 1 1 1 1 1 1 1 
1 1 1 1 1 1 1 1 1 
1 1 1 1 1 1 1 1 1 
1 1 1 1 1 1 1 1 1 
1 1 1 1 1 1 1 1 1 
1 1 1 1 1 1 1 1 1 
1 1 1 1 1 1 1 1 1 
1 1 1 1 1 1 1 1 1 
1 1 1 1 1 1 1 1 1 
1 1 1 1 1 1 1 1 1 
1 1 1 1 1 1 1 1 1 
1 1 1 1 1 1 1 1 1 
1 1 1 1 1 1 1 1 1 
1 1 1 1 1 1 1 1 1 
1 1 1 1 1 1 1 1 1 
1 1 1 1 1 1 1 1 1 
1 1 1 1 1 1 1 1 1 
1 1 1 1 1 1 1 1 1 
1 1 1 1 1 1 1 1 1 
1 1 1 1 1 1 1 1 1 
1 1 1 1 1 1 1 1 1 
1 1 1 1 1 1 1 1 1 
1 1 1 1 1 1 1 1 1 
1 1 1 1 1 1 1 1 1 
1 1 1 1 1 1 1 1 1 
1 1 1 1 1 1 1 1 1 
1 1 1 1 1 1 1 1 1 
1 1 1 1 1 1 1 1 1 
1 1 1 1 1 1 1 1 1 
1 1 1 1 1 1 1 1 1 
1 1 1 1 1 1 1 1 1 
1 1 1 1 1 1 1 1 1 
1 1 1 1 1 1 1 1 1 
1 1 1 1 1 1 1 1 1 
1 1 1 1 1 1 1 1 1 
1 1 1 1 1 1 1 1 1 
1 1 1 1 1 1 1 1 1 
1 1 1 1 1 1 1 1 1 
1 1 1 1 1 1 1 1 1 
1 1 1 1 1 1 1 1 1 
1 1 1 1 1 1 1 1 1 
1 1 1 1 1 1 1 1 1 
1 1 1 1 1 1 1 1 1 
1 1 1 1 1 1 1 1 1 
1 1 1 1 1 1 1 1 1 
1 1 1 1 1 1 1 1 1 
1 1 1 1 1 1 1 1 1 
1 1 1 1 1 1 1 1 1 
1 1 1 1 1 1 1 1 1 
1 1 1 1 1 1 1 1 1 
1 1 1 1 1 1 1 1 1 
1 1 1 1 1 1 1 1 1 
1 1 1 1 1 1 1 1 1 
1 1 1 1 1 1 1 1 1 
1 1 1 1 1 1 1 1 1 
1 1 1 1 1 1 1 1 1 
1 1 1 1 1 1 1 1 1 
1 1 1 1 1 1 1 1 1 
1 1 1 1 1 1 1 1 1 
1 1 1 1 1 1 1 1 1 
1 1 1 1 1 1 1 1 1 
1 1 1 1 1 1 1 1 1 
1 1 1 1 1 1 1 1 1 
1 1 1 1 1 1 1 1 1 
1 1 1 1 1 1 1 1 1 
1 1 1 1 1 1 1 1 1 
1 1 1 1 1 1 1 1 1 
1 1 1 1 1 1 1 1 1 
1 1 1 1 1 1 1 1 1 
1 1 1 1 1 1 1 1 1 
1 1 1 1 1 1 1 1 1 
1 1 1 1 1 1 1 1 1 
1 1 1 1 1 1 1 1 1 
1 1 1 1 1 1 1 1 1 
1 1 1 1 1 1 1 1 1 
1 1 1 1 1 1 1 1 1 
1 1 1 1 1 1 1 1 1 
1 1 1 1 1 1 1 1 1 
1 1 1 1 1 1 1 1 1 
1 1 1 1 1 1 1 1 1 
1 1 1 1 1 1 1 1 1 
1 1 1 1 1 1 1 1 1 
1 1 1 1 1 1 1 1 1 
1 1 1 1 1 1 1 1 1 
1 1 1 1 1 1 1 1 1 
1 1 1 1 1 1 1 1 1 
1 1 1 1 1 1 1 1 1 
1 1 1 1 1 1 1 1 1 
1 1 1 1 1 1 1 1 1 
1 1 1 1 1 1 1 1 1 
1 1 1 1 1 1 1 1 1 
1 1 1 1 1 1 1 1 1 
1 1 1 1 1 1 1 1 1 
1 1 1 1 1 1 1 1 1 
1 1 1 1 1 1 1 1 1 
1 1 1 1 1 1 1 1 1 
1 1 1 1 1 1 1 1 1 
1 1 1 1 1 1 1 1 1 
1 1 1 1 1 1 1 1 1 
1 1 1 1 1 1 1 1 1 
1 1 1 1 1 1 1 1 1 
1 1 1 1 1 1 1 1 1 
1 1 1 1 1 1 1 1 1 
1 1 1 1 1 1 1 1 1 
1 1 1 1 1 1 1 1 1 
1 1 1 1 1 1 1 1 1 
1 1 1 1 1 1 1 1 1 
1 1 1 1 1 1 1 1 1 
1 1 1 1 1 1 1 1 1 
1 1 1 1 1 1 1 1 1 
1 1 1 1 1 1 1 1 1 
1 1 1 1 1 1 1 1 1 
1 1 1 1 1 1 1 1 1 
1 1 1 1 1 1 1 1 1 
1 1 1 1 1 1 1 1 1 
1 1 1 1 1 1 1 1 1 
1 1 1 1 1 1 1 1 1 
1 1 1 1 1 1 1 1 1 
1 1 1 1 1 1 1 1 1 
1 1 1 1 1 1 1 1 1 
1 1 1 1 1 1 1 1 1 
1 1 1 1 1 1 1 1 1 
1 1 1 1 1 1 1 1 1 
1 1 1 1 1 1 1 1 1 
1 1 1 1 1 1 1 1 1 
1 1 1 1 1 1 1 1 1 
1 1 1 1 1 1 1 1 1 
1 1 1 1 1 1 1 1 1 
1 1 1 1 1 1 1 1 1 
1 1 1 1 1 1 1 1 1 
1 1 1 1 1 1 1 1 1 
1 1 1 1 1 1 1 1 1 
1 1 1 1 1 1 1 1 1 
1 1 1 1 1 1 1 1 1 
1 1 1 1 1 1 1 1 1 
1 1 1 1 1 1 1 1 1 
1 1 1 1 1 1 1 1 1 
1 1 1 1 1 1 1 1 1 
1 1 1 1 1 1 1 1 1 
1 1 1 1 1 1 1 1 1 
1 1 1 1 1 1 1 1 1 
1 1 1 1 1 1 1 1 1 
1 1 1 1 1 1 1 1 1 
1 1 1 1 1 1 1 1 1 
1 1 1 1 1 1 1 1 1 
1 1 1 1 1 1 1 1 1 
1 1 1 1 1 1 1 1 1 
1 1 1 1 1 1 1 1 1 
1 1 1 1 1 1 1 1 1 
1 1 1 1 1 1 1 1 1 
1 1 1 1 1 1 1 1 1 
1 1 1 1 1 1 1 1 1 
1 1 1 1 1 1 1 1 1 
1 1 1 1 1 1 1 1 1 
1 1 1 1 1 1 1 1 1 
1 1 1 1 1 1 1 1 1 
1 1 1 1 1 1 1 1 1 
1 1 1 1 1 1 1 1 1 
1 1 1 1 1 1 1 1 1 
1 1 1 1 1 1 1 1 1 
1 1 1 1 1 1 1 1 1 
1 1 1 1 1 1 1 1 1 
1 1 1 1 1 1 1 1 1 
1 1 1 1 1 1 1 1 1 
1 1 1 1 1 1 1 1 1 
1 1 1 1 1 1 1 1 1 
1 1 1 1 1 1 1 1 1 
1 1 1 1 1 1 1 1 1 
1 1 1 1 1 1 1 1 1 
1 1 1 1 1 1 1 1 1 
1 1 1 1 1 1 1 1 1 
1 1 1 1 1 1 1 1 1 
1 1 1 1 1 1 1 1 1 
1 1 1 1 1 1 1 1 1 
1 1 1 1 1 1 1 1 1 
1 1 1 1 1 1 1 1 1 
1 1 1 1 1 1 1 1 1 
1 1 1 1 1 1 1 1 1 
1 1 1 1 1 1 1 1 1 
1 1 1 1 1 1 1 1 1 
1 1 1 1 1 1 1 1 1 
1 1 1 1 1 1 1 1 1 
1 1 1 1 1 1 1 1 1 
1 1 1 1 1 1 1 1 1 
1 1 1 1 1 1 1 1 1 
1 1 1 1 1 1 1 1 1 
1 1 1 1 1 1 1 1 1 
1 1 1 1 1 1 1 1 1 
1 1 1 1 1 1 1 1 1 
1 1 1 1 1 1 1 1 1 
1 1 1 1 1 1 1 1 1 
1 1 1 1 1 1 1 1 1 
1 1 1 1 1 1 1 1 1 
1 1 1 1 1 1 1 1 1 
1 1 1 1 1 1 1 1 1 
1 1 1 1 1 1 1 1 1 
1 1 1 1 1 1 1 1 1 
1 1 1 1 1 1 1 1 1 
1 1 1 1 1 1 1 1 1 
1 1 1 1 1 1 1 1 1 
1 1 1 1 1 1 1 1 1 
1 1 1 1 1 1 1 1 1 
1 1 1 1 1 1 1 1 1 
1 1 1 1 1 1 1 1 1 
1 1 1 1 1 1 1 1 1 
1 1 1 1 1 1 1 1 1 
1 1 1 1 1 1 1 1 1 
1 1 1 1 1 1 1 1 1 
1 1 1 1 1 1 1 1 1 
1 1 1 1 1 1 1 1 1 
1 1 1 1 1 1 1 1 1 
1 1 1 1 1 1 1 1 1 
1 1 1 1 1 1 1 1 1 
1 1 1 1 1 1 1 1 1 
1 1 1 1 1 1 1 1 1 
1 1 1 1 1 1 1 1 1 
1 1 1 1 1 1 1 1 1 
1 1 1 1 1 1 1 1 1 
1 1 1 1 1 1 1 1 1 
1 1 1 1 1 1 1 1 1 
1 1 1 1 1 1 1 1 1 
1 1 1 1 1 1 1 1 1 
1 1 1 1 1 1 1 1 1 
1 1 1 1 1 1 1 1 1 
1 1 1 1 1 1 1 1 1 
1 1 1 1 1 1 1 1 1 
1 1 1 1 1 1 1 1 1 
1 1 1 1 1 1 1 1 1 
1 1 1 1 1 1 1 1 1 
1 1 1 1 1 1 1 1 1 
1 1 1 1 1 1 1 1 1 
1 1 1 1 1 1 1 1 1 
1 1 1 1 1 1 1 1 1 
1 1 1 1 1 1 1 1 1 
1 1 1 1 1 1 1 1 1 
1 1 1 1 1 1 1 1 1 
1 1 1 1 1 1 1 1 1 
1 1 1 1 1 1 1 1 1 
1 1 1 1 1 1 1 1 1 
1 1 1 1 1 1 1 1 1 
1 1 1 1 1 1 1 1 1 
1 1 1 1 1 1 1 1 1 
1 1 1 1 1 1 1 1 1 
1 1 1 1 1 1 1 1 1 
1 1 1 1 1 1 1 1 1 
1 1 1 1 1 1 1 1 1 
1 1 1 1 1 1 1 1 1 
1 1 1 1 1 1 1 1 1 
1 1 1 1 1 1 1 1 1 
1 1 1 1 1 1 1 1 1 
1 1 1 1 1 1 1 1 1 
1 1 1 1 1 1 1 1 1 
1 1 1 1 1 1 1 1 1 
1 1 1 1 1 1 1 1 1 
1 1 1 1 1 1 1 1 1 
1 1 1 1 1 1 1 1 1 
1 1 1 1 1 1 1 1 1 
1 1 1 1 1 1 1 1 1 
1 1 1 1 1 1 1 1 1 
1 1 1 1 1 1 1 1 1 
1 1 1 1 1 1 1 1 1 
1 1 1 1 1 1 1 1 1 
1 1 1 1 1 1 1 1 1 
1 1 1 1 1 1 1 1 1 
1 1 1 1 1 1 1 1 1 
1 1 1 1 1 1 1 1 1 
1 1 1 1 1 1 1 1 1 
1 1 1 1 1 1 1 1 1 
1 1 1 1 1 1 1 1 1 
1 1 1 1 1 1 1 1 1 
1 1 1 1 1 1 1 1 1 
1 1 1 1 1 1 1 1 1 
1 1 1 1 1 1 1 1 1 
1 1 1 1 1 1 1 1 1 
1 1 1 1 1 1 1 1 1 
1 1 1 1 1 1 1 1 1 
1 1 1 1 1 1 1 1 1 
1 1 1 1 1 1 1 1 1 
1 1 1 1 1 1 1 1 1 
1 1 1 1 1 1 1 1 1 
1 1 1 1 1 1 1 1 1 
1 1 1 1 1 1 1 1 1 
1 1 1 1 1 1 1 1 1 
1 1 1 1 1 1 1 1 1 
1 1 1 1 1 1 1 1 1 
1 1 1 1 1 1 1 1 1 
1 1 1 1 1 1 1 1 1 
1 1 1 1 1 1 1 1 1 
1 1 1 1 1 1 1 1 1 
1 1 1 1 1 1 1 1 1 
1 1 1 1 1 1 1 1 1 
1 1 1 1 1 1 1 1 1 
1 1 1 1 1 1 1 1 1 
1 1 1 1 1 1 1 1 1 
1 1 1 1 1 1 1 1 1 
1 1 1 1 1 1 1 1 1 
1 1 1 1 1 1 1 1 1 
1 1 1 1 1 1 1 1 1 
1 1 1 1 1 1 1 1 1 
1 1 1 1 1 1 1 1 1 
1 1 1 1 1 1 1 1 1 
1 1 1 1 1 1 1 1 1 
1 1 1 1 1 1 1 1 1 
1 1 1 1 1 1 1 1 1 
1 1 1 1 1 1 1 1 1 
1 1 1 1 1 1 1 1 1 
1 1 1 1 1 1 1 1 1 
1 1 1 1 1 1 1 1 1 
1 1 1 1 1 1 1 1 1 
1 1 1 1 1 1 1 1 1 
1 1 1 1 1 1 1 1 1 
1 1 1 1 1 1 1 1 1 
1 1 1 1 1 1 1 1 1 
1 1 1 1 1 1 1 1 1 
1 1 1 1 1 1 1 1 1 
1 1 1 1 1 1 1 1 1 
1 1 1 1 1 1 1 1 1 
1 1 1 1 1 1 1 1 1 
1 1 1 1 1 1 1 1 1 
1 1 1 1 1 1 1 1 1 
1 1 1 1 1 1 1 1 1 
1 1 1 1 1 1 1 1 1 
1 1 1 1 1 1 1 1 1 
1 1 1 1 1 1 1 1 1 
1 1 1 1 1 1 1 1 1 
1 1 1 1 1 1 1 1 1 
1 1 1 1 1 1 1 1 1 
1 1 1 1 1 1 1 1 1 
1 1 1 1 1 1 1 1 1 
1 1 1 1 1 1 1 1 1 
1 1 1 1 1 1 1 1 1 
1 1 1 1 1 1 1 1 1 
1 1 1 1 1 1 1 1 1 
1 1 1 1 1 1 1 1 1 
1 1 1 1 1 1 1 1 1 
1 1 1 1 1 1 1 1 1 
1 1 1 1 1 1 1 1 1 
1 1 1 1 1 1 1 1 1 
1 1 1 1 1 1 1 1 1 
1 1 1 1 1 1 1 1 1 
1 1 1 1 1 1 1 1 1 
1 1 1 1 1 1 1 1 1 
1 1 1 1 1 1 1 1 1 
1 1 1 1 1 1 1 1 1 
1 1 1 1 1 1 1 1 1 
1 1 1 1 1 1 1 1 1 
1 1 1 1 1 1 1 1 1 
1 1 1 1 1 1 1 1 1 
1 1 1 1 1 1 1 1 1 
1 1 1 1 1 1 1 1 1 
1 1 1 1 1 1 1 1 1 
1 1 1 1 1 1 1 1 1 
1 1 1 1 1 1 1 1 1 
1 1 1 1 1 1 1 1 1 
1 1 1 1 1 1 1 1 1 
1 1 1 1 1 1 1 1 1 
1 1 1 1 1 1 1 1 1 
1 1 1 1 1 1 1 1 1 
1 1 1 1 1 1 1 1 1 
1 1 1 1 1 1 1 1 1 
1 1 1 1 1 1 1 1 1 
1 1 1 1 1 1 1 1 1 
1 1 1 1 1 1 1 1 1 
1 1 1 1 1 1 1 1 1 
1 1 1 1 1 1 
NORMALS normals float
-0.0222113 -0.0222113 -0.999507 -0.0222113 -0.999507 -0.0222113 -0.70702 -0.70702 -0.0157115 
0 -0.0222167 -0.999753 0 -0.999753 -0.0222167 0 -0.0222167 -0.999753 
0 -0.999753 -0.0222167 0.0227214 0 -0.999742 0.0227214 -0.999742 0 
1 0 0 -0.0227155 -0.0227155 -0.999484 -0.707107 -0.707107 0 
-0.707107 -0.707107 0 0 0.0227214 -0.999742 0 0.0227214 -0.999742 
0.0227155 0.0227155 -0.999484 0.707107 0.707107 0 0.715007 0.699118 0 
-0.0222113 -0.0222113 -0.999507 -0.70702 -0.70702 -0.0157115 -0.999507 -0.0222113 -0.0222113 
0.0227155 0.0227155 -0.999484 0.707107 0.707107 0 0.699118 0.715007 0 
0 1 0 0.0222167 0.999753 0 0 0.0227214 -0.999742 
-0.999742 0.0227214 0 0.699118 0.715007 0 0.707107 0.707107 0 
0 1 0 -0.0222113 -0.0222113 -0.999507 -0.0222113 -0.999507 -0.0222113 
-0.999507 -0.0222113 -0.0222113 0.0227214 0 -0.999742 0.0227214 -0.999742 0 
1 0 0 0 0.0227214 -0.999742 -0.999742 0.0227214 0 
0.699118 0.715007 0 0.715007 0.699118 0 0 1 0 
-0.0222113 -0.0222113 -0.999507 -0.0222113 -0.999507 -0.0222113 -0.999507 -0.0222113 -0.0222113 
0.0227214 0 -0.999742 0.0227214 -0.999742 0 1 0 0 
0 0.0227214 -0.999742 -0.999742 0.0227214 0 0.699118 0.715007 0 
0.715007 0.699118 0 0 1 0 -0.0227155 -0.999484 0.0227155 
-0.999753 0 0.0222167 0 -0.999742 0.0227214 0.0227155 -0.999484 0.0227155 
0.715007 0 0.699118 0.707107 0 0.707107 -0.0227155 -0.0227155 0.999484 
-0.015887 0.699029 0.714916 0 0.715007 0.699118 0 0.699118 0.715007 
0 0.715007 0.699118 0.015887 0.699029 0.714916 0.015887 0.714916 0.699029 
0 -0.999742 0.0227214 -0.999742 0 0.0227214 0.714916 0.015887 0.699029 
0.699118 0 0.715007 0 0.699118 0.715007 0 0.715007 0.699118 
0 -0.999742 0.0227214 -0.999742 0 0.0227214 0.715007 0 0.699118 
0.699118 0 0.715007 0 0.699118 0.715007 0 0.715007 0.699118 
0 -0.999742 0.0227214 -0.999742 0 0.0227214 0.715007 0 0.699118 
0.699118 0 0.715007 0 0.699118 0.715007 0 0.715007 0.699118 
-0.0222167 0 0.999753 0 0 1 0.0222167 0 0.999753 
0 0 1 0 0 1 0 0 1 
0 0 -1 0 -0.699118 -0.715007 -0.999742 0 -0.0227214 
0.699118 0 -0.715007 0 0.699118 -0.715007 -0.0222113 -0.0222113 -0.999507 
-0.0222113 -0.999507 -0.0222113 -0.57735 -0.57735 -0.57735 0.0222167 0 -0.999753 
0.0227155 -0.999484 -0.0227155 0.999753 0 -0.0222167 -0.0222113 -0.0222113 -0.999507 
-0.57735 -0.57735 -0.57735 -0.57735 -0.57735 -0.57735 0.0222113 0.0222113 -0.999507 
0.57735 0.57735 -0.57735 0.581626 0.568701 -0.581626 -0.0157115 -0.70702 -0.70702 
-0.57735 -0.57735 -0.57735 -0.70702 -0.0157115 -0.70702 0.0222167 0 -0.999753 
0.714916 0.699029 -0.015887 0.70702 0.70702 -0.0157115 -0.715007 0 -0.699118 
0.707107 0 -0.707107 0.999753 0 -0.0222167 -0.015887 0.699029 -0.714916 
-0.581626 -0.568701 -0.581626 0.0222113 0.0222113 -0.999507 0.999507 0.0222113 -0.0222113 
-0.0222113 -0.0222113 -0.999507 -0.57735 -0.57735 -0.57735 -0.57735 -0.57735 -0.57735 
0.0222113 0.0222113 -0.999507 0.57735 0.57735 -0.57735 0.57735 0.57735 -0.57735 
-0.0222113 -0.0222113 -0.999507 -0.57735 -0.57735 -0.57735 -0.70702 -0.0157115 -0.70702 
0.0222113 0.0222113 -0.999507 0.70702 0.70702 -0.0157115 0.70702 0.70702 -0.0157115 
0 0.0222167 -0.999753 -0.699029 0.015887 -0.714916 0.568701 0.581626 -0.581626 
0.57735 0.57735 -0.57735 0 0.999753 -0.0222167 -0.57735 -0.57735 -0.57735 
-0.0222113 -0.999507 -0.0222113 -0.57735 -0.57735 -0.57735 0 -1 0 
0.0222167 -0.999753 0 0.0227155 -0.0227155 -0.999484 0 -0.0222167 -0.999753 
0 -0.999753 -0.0222167 0 -0.0222167 -0.999753 0.568701 -0.581626 -0.581626 
-0.0222113 -0.0222113 -0.999507 -0.0157115 -0.70702 -0.70702 -0.70702 -0.0157115 -0.70702 
-0.568701 -0.581626 -0.581626 -0.568701 -0.581626 -0.581626 0.57735 0.57735 -0.57735 
0.0222113 0.0222113 -0.999507 -0.0222113 0.0222113 -0.999507 -0.0222113 0.0222113 -0.999507 
0.581626 -0.568701 -0.581626 0.0222167 0 -0.999753 0.707107 0 -0.707107 
-0.707107 0 -0.707107 -0.707107 0 -0.707107 0.585999 0.572977 -0.572977 
0.572977 0.585999 -0.572977 0.0157115 0.70702 -0.70702 -0.0157115 0.70702 -0.70702 
0.015887 0.699029 -0.714916 -0.707107 0 -0.707107 -0.707107 0 -0.707107 
0.715007 0 -0.699118 -0.581626 -0.568701 -0.581626 -0.581626 -0.568701 -0.581626 
0.715007 0 -0.699118 -0.0222113 -0.0222113 -0.999507 -0.0157115 -0.70702 -0.70702 
-0.70702 -0.0157115 -0.70702 -0.568701 -0.581626 -0.581626 -0.568701 -0.581626 -0.581626 
0.57735 0.57735 -0.57735 0.70702 0.0157115 -0.70702 -0.707107 0 -0.707107 
-0.707107 0 -0.707107 0.585999 0.572977 -0.572977 0.572977 0.585999 -0.572977 
0.0157115 0.70702 -0.70702 -0.707107 0 -0.707107 -0.707107 0 -0.707107 
0.57735 0.57735 -0.57735 0.70702 0.0157115 -0.70702 0 0 -1 
-0.572977 -0.572977 -0.585999 0.572977 0.585999 -0.572977 0.572977 0.572977 -0.585999 
0.0157115 0.70702 -0.70702 -0.0222167 0 -0.999753 -0.581626 -0.568701 -0.581626 
-0.581626 -0.568701 -0.581626 0.0222113 0.0222113 -0.999507 0.70702 0.0157115 -0.70702 
0 -0.0222167 -0.999753 -0.568701 -0.581626 -0.581626 -0.699029 -0.015887 -0.714916 
0.564132 0.577251 -0.59037 0.577251 0.564132 -0.59037 0.0157115 0.70702 -0.70702 
0 0 -1 -0.699118 0 -0.715007 0.699118 0 -0.715007 
0 0 -1 -0.572977 -0.572977 -0.585999 0.699118 0 -0.715007 
-0.0222167 0 -0.999753 -0.581626 -0.568701 -0.581626 -0.999753 0 -0.0222167 
0.0222113 0.0222113 -0.999507 0.70702 0.0157115 -0.70702 -0.015887 0.699029 -0.714916 
0.0157115 0.70702 -0.70702 0 -0.0222167 -0.999753 0 -0.707107 -0.707107 
-0.568701 -0.581626 -0.581626 0.699029 -0.015887 -0.714916 -0.0222167 0 -0.999753 
-0.581626 -0.568701 -0.581626 -0.999753 0 -0.0222167 0.0222113 0.0222113 -0.999507 
0.70702 0.0157115 -0.70702 -0.015887 0.699029 -0.714916 0.0157115 0.70702 -0.70702 
-0.0222113 -0.0222113 -0.999507 -0.0222113 -0.999507 -0.0222113 -0.999507 -0.0222113 -0.0222113 
0 -0.707107 -0.707107 0 -0.999753 -0.0222167 -0.568701 -0.581626 -0.581626 
0 -0.999753 -0.0222167 0 -1 0 0 -1 0 
0 -1 0 0 -0.0222167 -0.999753 0 -0.999753 -0.0222167 
0 -1 0 0.568701 -0.581626 -0.581626 0 -0.999753 -0.0222167 
0.0222113 -0.0222113 -0.999507 0.0222113 -0.999507 -0.0222113 0.999507 -0.0222113 -0.0222113 
-0.707107 0 -0.707107 -0.999753 0 -0.0222167 0 0 -1 
0.707107 0 -0.707107 0.714916 -0.699029 -0.015887 -0.707107 0 -0.707107 
-0.714916 -0.699029 -0.015887 0.572977 0.572977 -0.585999 0 0.699118 -0.715007 
0 0 -1 0 0.699118 -0.715007 0 0.699118 -0.715007 
0 0 -1 0.699029 -0.714916 -0.015887 0 -0.0222167 -0.999753 
0.0222113 -0.0222113 -0.999507 0.0222113 -0.999507 -0.0222113 0.999507 -0.0222113 -0.0222113 
-0.0222113 -0.0222113 -0.999507 -0.70702 -0.70702 -0.0157115 -0.70702 -0.70702 -0.0157115 
-0.699118 0 -0.715007 0.699118 0 -0.715007 0 0 -1 
0 0 -1 0 0 -1 0 0 -1 
0 0 -1 0 0 -1 0.0222167 0 -0.999753 
0.999753 0 -0.0222167 -0.0222113 -0.0222113 -0.999507 -0.70702 -0.70702 -0.0157115 
-0.999507 -0.0222113 -0.0222113 0 -0.699118 -0.715007 -0.572977 -0.572977 -0.585999 
0.699118 0 -0.715007 0 0 -1 0 0 -1 
0 0 -1 0 0 -1 0 0 -1 
0 0 -1 0.0222167 0 -0.999753 0.999753 0 -0.0222167 
-0.707107 0 -0.707107 -0.999753 0 -0.0222167 0.699118 0 -0.715007 
0 0 -1 0 0 -1 0 0 -1 
0 0 -1 0 0 -1 0 0 -1 
0.0222167 0 -0.999753 0.714916 -0.699029 -0.015887 -0.707107 0 -0.707107 
-0.999753 0 -0.0222167 0.572977 0.572977 -0.585999 0 0.699118 -0.715007 
0 0 -1 0 0 -1 0 0 -1 
0 0 -1 0 0 -1 0 0 -1 
0 0 -1 0 0 -1 0.699029 -0.714916 -0.015887 
0 -0.0222167 -0.999753 0.0222113 -0.0222113 -0.999507 0.0222113 -0.999507 -0.0222113 
0.999507 -0.0222113 -0.0222113 -0.707107 0 -0.707107 -0.999753 0 -0.0222167 
0.699118 0 -0.715007 0 0 -1 0 0 -1 
0 0 -1 0 0 -1 0 0 -1 
0 0 -1 0 0 -1 0 0 -1 
0 0 -1 0 0 -1 0.0222167 0 -0.999753 
0.999753 0 -0.0222167 -0.581626 -0.568701 -0.581626 -0.714916 -0.699029 -0.015887 
0.572977 0.572977 -0.585999 0 0.699118 -0.715007 0 0 -1 
0 0 -1 0 0 -1 0 0 -1 
0 0 -1 0 0 -1 0 0 -1 
0 0 -1 0 0 -1 0 0 -1 
0 0 -1 0.0222167 0 -0.999753 0.999753 0 -0.0222167 
-0.57735 -0.57735 -0.57735 -0.70702 -0.70702 -0.0157115 -0.70702 -0.70702 -0.0157115 
0.699118 0 -0.715007 0 0 -1 0 0 -1 
0 0 -1 0 0 -1 0 0 -1 
0 0 -1 0 0 -1 0 0 -1 
0 0 -1 0 0 -1 0 0 -1 
0 0 -1 0.0222167 0 -0.999753 0.999753 0 -0.0222167 
-0.70702 -0.0157115 -0.70702 -0.70702 -0.70702 -0.0157115 -0.999507 -0.0222113 -0.0222113 
0.572977 0.572977 -0.585999 0 0.699118 -0.715007 0 0 -1 
0 0 -1 0 0 -1 0 0 -1 
0 0 -1 0 0 -1 0 0 -1 
0 0 -1 0 0 -1 0 0 -1 
0 0 -1 0 0 -1 0 0 -1 
0.0222167 0 -0.999753 0.999753 0 -0.0222167 -0.707107 0 -0.707107 