# vtk DataFile Version 3.0
vtk output
ASCII
DATASET POLYDATA
POINTS 5892 float
137 145 68.0833 137 144.083 69 136.083 145 69 
138 145 68.0833 138 144.083 69 139 145 68.0833 
139 144.083 69 140 145 68.0833 140 144.083 69 
141 145 68.0833 141 144.083 69 142 145 68.0833 
142 144.083 69 143 145 68.0833 143 144.083 69 
144 145 68.0833 144 144.083 69 145 145 68.0833 
145 144.083 69 146 145 68.0833 146 144.083 69 
147 145 68.0833 147 144.083 69 148 145 68.0833 
148 144.083 69 148.917 145 69 137 145.917 69 
138 145.917 69 139 145.917 69 140 145.917 69 
141 145.917 69 142 145.917 69 143 145.917 69 
144 145.917 69 145 145.917 69 146 145.917 69 
147 145.917 69 147.083 146 69 148 146 68.0833 
148.917 146 69 148 146.917 69 141 138 69.0833 
141 137.083 70 140.083 138 70 142 138 69.0833 
142 137.083 70 142.917 138 70 140 139 69.0833 
140 138.083 70 139.083 139 70 141 139 69.0833 
142 139 69.0833 142.917 139 70 144 139 69.0833 
144 138.083 70 143.083 139 70 144.917 139 70 
139 140 69.0833 139 139.083 70 138.083 140 70 
140 140 69.0833 141 140 69.0833 142 140 69.0833 
143 139.083 70 143 140 69.0833 144 140 69.0833 
145 139.083 70 145 140 69.0833 146 140 69.0833 
146 139.083 70 146.917 140 70 139 141 69.0833 
138.083 141 70 140 141 69.0833 141 141 69.0833 
142 141 69.0833 143 141 69.0833 144 141 69.0833 
145 141 69.0833 146 141 69.0833 146.917 141 70 
139 142 69.0833 138.083 142 70 140 142 69.0833 
141 142 69.0833 142 142 69.0833 143 142 69.0833 
144 142 69.0833 145 142 69.0833 146 142 69.0833 
147 141.083 70 147 142 69.0833 148 142 69.0833 
148 141.083 70 149 142 69.0833 149 141.083 70 
150 142 69.0833 150 141.083 70 150.917 142 70 
138 143 69.0833 138 142.083 70 137.083 143 70 
139 143 69.0833 140 143 69.0833 141 143 69.0833 
142 143 69.0833 143 143 69.0833 144 143 69.0833 
145 143 69.0833 146 143 69.0833 147 143 69.0833 
148 143 69.0833 149 143 69.0833 150 143 69.0833 
150.917 143 70 137 144 69.0833 137 143.083 70 
136.083 144 70 138 144 69.0833 139 144 69.0833 
140 144 69.0833 141 144 69.0833 142 144 69.0833 
143 144 69.0833 144 144 69.0833 145 144 69.0833 
146 144 69.0833 147 144 69.0833 148 144 69.0833 
149 144 69.0833 150 144 69.0833 150.917 144 70 
136.083 145 70 149 145 69.0833 150 145 69.0833 
150.917 145 70 137 146 69.0833 136.083 146 70 
138 146 69.0833 139 146 69.0833 140 146 69.0833 
141 146 69.0833 142 146 69.0833 143 146 69.0833 
144 146 69.0833 145 146 69.0833 146 146 69.0833 
147 146 69.0833 149 146 69.0833 150 146 69.0833 
150.917 146 70 137 147 69.0833 136.083 147 70 
138 147 69.0833 139 147 69.0833 140 147 69.0833 
141 147 69.0833 142 147 69.0833 143 147 69.0833 
144 147 69.0833 145 147 69.0833 146 147 69.0833 
147 147 69.0833 148 147 69.0833 149 147 69.0833 
149.917 147 70 150 146.917 70 137 147.917 70 
138 147.917 70 139 147.917 70 140 147.917 70 
141 147.917 70 142 147.917 70 143 147.917 70 
144 147.917 70 145 147.917 70 146 147.917 70 
147 147.917 70 148 147.917 70 149 147.917 70 
138 137 70.0833 138 136.083 71 137.083 137 71 
139 137 70.0833 139 136.083 71 140 137 70.0833 
140 136.083 71 140.917 137 71 138 138 70.0833 
137.083 138 71 138.917 138 71 139 137.917 71 
139.083 138 71 140 138 70.0833 141 137.083 71 
142 137.083 71 142.917 138 71 138 139 70.0833 
137.083 139 71 139 138.083 71 139 139 70.0833 
142.917 139 71 144 138.083 71 143.083 139 71 
145 139 70.0833 145 138.083 71 145.917 139 71 
138 140 70.0833 137.083 140 71 143 139.083 71 
146 139.083 71 146.917 140 71 138 141 70.0833 
137.083 141 71 146.917 141 71 150 141 70.0833 
150 140.083 71 149.083 141 71 150.917 141 71 
138 142 70.0833 137.083 142 71 147 141.083 71 
148 141.083 71 149 141.083 71 150.917 142 71 
136 143 70.0833 136 142.083 71 135.083 143 71 
137 143 70.0833 137 142.083 71 150.917 143 71 
136 144 70.0833 135.083 144 71 150.917 144 71 
136 145 70.0833 135.083 145 71 150.917 145 71 
136 145.917 71 136.083 146 71 150 146 70.9167 
149.917 146 71 150 145.917 71 137 146.917 71 
137 147 70.9167 138 146.917 71 138 147 70.9167 
139 146.917 71 139 147 70.9167 140 146.917 71 
140 147 70.9167 141 146.917 71 141 147 70.9167 
142 146.917 71 142 147 70.9167 143 146.917 71 
143 147 70.9167 144 146.917 71 144 147 70.9167 
145 146.917 71 145 147 70.9167 146 146.917 71 
146 147 70.9167 147 146.917 71 147 147 70.9167 
148 146.917 71 148 147 70.9167 149 146.917 71 
149 147 70.9167 138 135 71.0833 138 134.083 72 
137.083 135 72 138.917 135 72 137 136 71.0833 
137 135.083 72 136.083 136 72 138 136 71.0833 
139 135.083 72 139 136 71.0833 140 136 71.0833 
140 135.083 72 140.917 136 72 137 137 71.0833 
136.083 137 72 140.917 137 72 137 138 71.0833 
136.083 138 72 139 138 71.0833 141 137.083 72 
142 137.083 72 142.917 138 72 137 139 71.0833 
136.083 139 72 142.917 139 72 144 139 71.9167 
145 139 71.9167 137 140 71.0833 136.083 140 72 
143 139.083 72 144 139.083 72 145 139.083 72 
146 139.083 72 146.917 140 72 136 141 71.0833 
136 140.083 72 135.083 141 72 137 141 71.0833 
146.917 141 72 150 140.083 72 149.083 141 72 
150.917 141 72 135 142 71.0833 135 141.083 72 
134.083 142 72 136 142 71.0833 137 142 71.0833 
147 141.083 72 148 141.083 72 149 141.083 72 
151 141.083 72 151 142 71.0833 152 142 71.0833 
152 141.083 72 152.917 142 72 135 143 71.0833 
134.083 143 72 151 143 71.0833 151.917 143 72 
152 142.917 72 135 144 71.0833 134.083 144 72 
150.917 144 72 151 143.917 72 135 145 71.0833 
134.083 145 72 150 145 71.9167 149.917 145 72 
150 144.917 72 135 145.917 72 136 145.917 72 
137 145.917 72 137 146 71.9167 138 145.917 72 
138 146 71.9167 139 145.917 72 139 146 71.9167 
140 145.917 72 140 146 71.9167 141 145.917 72 
141 146 71.9167 142 145.917 72 142 146 71.9167 
143 145.917 72 143 146 71.9167 144 145.917 72 
144 146 71.9167 145 145.917 72 145 146 71.9167 
146 145.917 72 146 146 71.9167 147 145.917 72 
147 146 71.9167 148 145.917 72 148 146 71.9167 
149 145.917 72 149 146 71.9167 138 134.083 73 
137.083 135 73 138.917 135 73 137 135.083 73 
136.083 136 73 139 135.083 73 140 135.083 73 
140.917 136 73 136.083 137 73 140.917 137 73 
136.083 138 73 141 137.083 73 142 137.083 73 
142.917 138 73 136 139 72.0833 136 138.083 73 
135.083 139 73 142.917 139 73 136 140 72.0833 
135.083 140 73 143 139.083 73 144 139.083 73 
145 139.083 73 146 139.083 73 146.917 140 73 
150 140 72.0833 150 139.083 73 149.083 140 73 
150.917 140 73 135 141 72.0833 135 140.083 73 
134.083 141 73 147 140.083 73 147 141 72.0833 
148 141 72.0833 148 140.083 73 149 141 72.0833 
149 140.083 73 151 141 72.0833 151 140.083 73 
151.917 141 73 134 142 72.0833 134 141.083 73 
133.083 142 73 152 141.083 73 152.917 142 73 
134 143 72.0833 133.083 143 73 151.917 143 73 
152 142.917 73 134 143.917 73 134.083 144 73 
150.917 144 73 151 143.917 73 135 144.917 73 
135 145 72.9167 136 144.917 73 136 145 72.9167 
137 144.917 73 137 145 72.9167 138 144.917 73 
138 145 72.9167 138.083 145 73 149.917 145 73 
150 144.917 73 139 145.917 73 140 145.917 73 
141 145.917 73 142 145.917 73 143 145.917 73 
144 145.917 73 145 145.917 73 146 145.917 73 
147 145.917 73 148 145.917 73 149 145.917 73 
138 134.083 74 137.083 135 74 138.917 135 74 
137 135.083 74 136.083 136 74 139 135.083 74 
140 135.083 74 140.917 136 74 136.083 137 74 
140.917 137 74 136.083 138 74 141 137.083 74 
142 137.083 74 142.917 138 74 136 138.083 74 
135.083 139 74 142.917 139 74 150 139 73.0833 
150 138.083 74 149.083 139 74 150.917 139 74 
135 140 73.0833 135 139.083 74 134.083 140 74 
143 139.083 74 144 139.083 74 145 139.083 74 
146 139.083 74 147 140 73.0833 147 139.083 74 
148 140 73.0833 148 139.083 74 149 140 73.0833 
149 139.083 74 151 140 73.0833 151 139.083 74 
152 140 73.0833 152 139.083 74 152.917 140 74 
134 141 73.0833 134 140.083 74 133.083 141 74 
152 141 73.0833 152.917 141 74 133 142 73.0833 
133 141.083 74 132.083 142 74 152.917 142 74 
133 143 73.0833 132.083 143 74 151.917 143 74 
152 142.917 74 133 143.917 74 134 143.917 74 
135 143.917 74 135 144 73.9167 136 143.917 74 
136 144 73.9167 137 143.917 74 137 144 73.9167 
138 143.917 74 138 144 73.9167 138.083 144 74 
150.917 144 74 151 143.917 74 138.083 145 74 
149.917 145 74 150 144.917 74 139 145.917 74 
140 145.917 74 141 145.917 74 142 145.917 74 
143 145.917 74 144 145.917 74 145 145.917 74 
146 145.917 74 147 145.917 74 148 145.917 74 
149 145.917 74 138 134.083 75 137.083 135 75 
139 135 74.0833 139 134.083 75 139.917 135 75 
136 136 74.0833 136 135.083 75 135.083 136 75 
137 135.083 75 140 135.083 75 140.917 136 75 
136 137 74.0833 135.083 137 75 141 136.083 75 
141 137 74.0833 142 137 74.0833 142 136.083 75 
142.917 137 75 136 138 74.0833 135.083 138 75 
142.917 138 75 150 138 74.0833 150 137.083 75 
149.083 138 75 150.917 138 75 134 139 74.0833 
134 138.083 75 133.083 139 75 135 139 74.0833 
135 138.083 75 143 138.083 75 143 139 74.0833 
144 139 74.0833 144 138.083 75 145 139 74.0833 
145 138.083 75 146 139 74.0833 146 138.083 75 
147 139 74.0833 147 138.083 75 148 139 74.0833 
148 138.083 75 149 139 74.0833 149 138.083 75 
151 139 74.0833 151 138.083 75 152 139 74.0833 
152 138.083 75 152.917 139 75 134 140 74.0833 
133.083 140 75 152.917 140 75 132 141 74.0833 
132 140.083 75 131.083 141 75 133 141 74.0833 
133 140.083 75 152.917 141 75 132 142 74.0833 
131.083 142 75 152.917 142 75 132 142.917 75 
132.083 143 75 152 143 74.0833 152.917 143 75 
133 143.917 75 134 143.917 75 135 143.917 75 
136 143.917 75 137 143.917 75 138 143.917 75 
138.083 144 75 150.917 144 75 151 143.917 75 
152 143.917 75 138.083 145 75 149.917 145 75 
150 144.917 75 139 145.917 75 140 145.917 75 
141 145.917 75 142 145.917 75 143 145.917 75 
144 145.917 75 145 145.917 75 146 145.917 75 
147 145.917 75 148 145.917 75 149 145.917 75 
139 134 75.0833 139 133.083 76 138.083 134 76 
140 134 75.0833 140 133.083 76 140.917 134 76 
138 134.083 76 137.083 135 76 140 135 75.0833 
140.917 135 76 133 136 75.0833 133 135.083 76 
132.083 136 76 134 136 75.0833 134 135.083 76 
135 136 75.0833 135 135.083 76 136 135.083 76 
137 135.083 76 141 136 75.0833 141 135.083 76 
[...]
POINT_DATA 5892
SCALARS scalars float
LOOKUP_TABLE default
1 1 1 1 1 1 1 1 1 
1 1 1 1 1 1 1 1 1 
1 1 1 1 1 1 1 1 1 
1 1 1 1 1 1 1 1 1 
1 1 1 1 1 1 1 1 1 
1 1 1 1 1 1 1 1 1 
1 1 1 1 1 1 1 1 1 
1 1 1 1 1 1 1 1 1 
1 1 1 1 1 1 1 1 1 
1 1 1 1 1 1 1 1 1 
1 1 1 1 1 1 1 1 1 
1 1 1 1 1 1 1 1 1 
1 1 1 1 1 1 1 1 1 
1 1 1 1 1 1 1 1 1 
1 1 1 1 1 1 1 1 1 
1 1 1 1 1 1 1 1 1 
1 1 1 1 1 1 1 1 1 
1 1 1 1 1 1 1 1 1 
1 1 1 1 1 1 1 1 1 
1 1 1 1 1 1 1 1 1 
1 1 1 1 1 1 1 1 1 
1 1 1 1 1 1 1 1 1 
1 1 1 1 1 1 1 1 1 
1 1 1 1 1 1 1 1 1 
1 1 1 1 1 1 1 1 1 
1 1 1 1 1 1 1 1 1 
1 1 1 1 1 1 1 1 1 
1 1 1 1 1 1 1 1 1 
1 1 1 1 1 1 1 1 1 
1 1 1 1 1 1 1 1 1 
1 1 1 1 1 1 1 1 1 
1 1 1 1 1 1 1 1 1 
1 1 1 1 1 1 1 1 1 
1 1 1 1 1 1 1 1 1 
1 1 1 1 1 1 1 1 1 
1 1 1 1 1 1 1 1 1 
1 1 1 1 1 1 1 1 1 
1 1 1 1 1 1 1 1 1 
1 1 1 1 1 1 1 1 1 
1 1 1 1 1 1 1 1 1 
1 1 1 1 1 1 1 1 1 
1 1 1 1 1 1 1 1 1 
1 1 1 1 1 1 1 1 1 
1 1 1 1 1 1 1 1 1 
1 1 1 1 1 1 1 1 1 
1 1 1 1 1 1 1 1 1 
1 1 1 1 1 1 1 1 1 
1 1 1 1 1 1 1 1 1 
1 1 1 1 1 1 1 1 1 
1 1 1 1 1 1 1 1 1 
1 1 1 1 1 1 1 1 1 
1 1 1 1 1 1 1 1 1 
1 1 1 1 1 1 1 1 1 
1 1 1 1 1 1 1 1 1 
1 1 1 1 1 1 1 1 1 
1 1 1 1 1 1 1 1 1 
1 1 1 1 1 1 1 1 1 
1 1 1 1 1 1 1 1 1 
1 1 1 1 1 1 1 1 1 
1 1 1 1 1 1 1 1 1 
1 1 1 1 1 1 1 1 1 
1 1 1 1 1 1 1 1 1 
1 1 1 1 1 1 1 1 1 
1 1 1 1 1 1 1 1 1 
1 1 1 1 1 1 1 1 1 
1 1 1 1 1 1 1 1 1 
1 1 1 1 1 1 1 1 1 
1 1 1 1 1 1 1 1 1 
1 1 1 1 1 1 1 1 1 
1 1 1 1 1 1 1 1 1 
1 1 1 1 1 1 1 1 1 
1 1 1 1 1 1 1 1 1 
1 1 1 1 1 1 1 1 1 
1 1 1 1 1 1 1 1 1 
1 1 1 1 1 1 1 1 1 
1 1 1 1 1 1 1 1 1 
1 1 1 1 1 1 1 1 1 
1 1 1 1 1 1 1 1 1 
1 1 1 1 1 1 1 1 1 
1 1 1 1 1 1 1 1 1 
1 1 1 1 1 1 1 1 1 
1 1 1 1 1 1 1 1 1 
1 1 1 1 1 1 1 1 1 
1 1 1 1 1 1 1 1 1 
1 1 1 1 1 1 1 1 1 
1 1 1 1 1 1 1 1 1 
1 1 1 1 1 1 1 1 1 
1 1 1 1 1 1 1 1 1 
1 1 1 1 1 1 1 1 1 
1 1 1 1 1 1 1 1 1 
1 1 1 1 1 1 1 1 1 
1 1 1 1 1 1 1 1 1 
1 1 1 1 1 1 1 1 1 
1 1 1 1 1 1 1 1 1 
1 1 1 1 1 1 1 1 1 
1 1 1 1 1 1 1 1 1 
1 1 1 1 1 1 1 1 1 
1 1 1 1 1 1 1 1 1 
1 1 1 1 1 1 1 1 1 
1 1 1 1 1 1 1 1 1 
1 1 1 1 1 1 1 1 1 
1 1 1 1 1 1 1 1 1 
1 1 1 1 1 1 1 1 1 
1 1 1 1 1 1 1 1 1 
1 1 1 1 1 1 1 1 1 
1 1 1 1 1 1 1 1 1 
1 1 1 1 1 1 1 1 1 
1 1 1 1 1 1 1 1 1 
1 1 1 1 1 1 1 1 1 
1 1 1 1 1 1 1 1 1 
1 1 1 1 1 1 1 1 1 
1 1 1 1 1 1 1 1 1 
1 1 1 1 1 1 1 1 1 
1 1 1 1 1 1 1 1 1 
1 1 1 1 1 1 1 1 1 
1 1 1 1 1 1 1 1 1 
1 1 1 1 1 1 1 1 1 
1 1 1 1 1 1 1 1 1 
1 1 1 1 1 1 1 1 1 
1 1 1 1 1 1 1 1 1 
1 1 1 1 1 1 1 1 1 
1 1 1 1 1 1 1 1 1 
1 1 1 1 1 1 1 1 1 
1 1 1 1 1 1 1 1 1 
1 1 1 1 1 1 1 1 1 
1 1 1 1 1 1 1 1 1 
1 1 1 1 1 1 1 1 1 
1 1 1 1 1 1 1 1 1 
1 1 1 1 1 1 1 1 1 
1 1 1 1 1 1 1 1 1 
1 1 1 1 1 1 1 1 1 
1 1 1 1 1 1 1 1 1 
1 1 1 1 1 1 1 1 1 
1 1 1 1 1 1 1 1 1 
1 1 1 1 1 1 1 1 1 
1 1 1 1 1 1 1 1 1 
1 1 1 1 1 1 1 1 1 
1 1 1 1 1 1 1 1 1 
1 1 1 1 1 1 1 1 1 
1 1 1 1 1 1 1 1 1 
1 1 1 1 1 1 1 1 1 
1 1 1 1 1 1 1 1 1 
1 1 1 1 1 1 1 1 1 
1 1 1 1 1 1 1 1 1 
1 1 1 1 1 1 1 1 1 
1 1 1 1 1 1 1 1 1 
1 1 1 1 1 1 1 1 1 
1 1 1 1 1 1 1 1 1 
1 1 1 1 1 1 1 1 1 
1 1 1 1 1 1 1 1 1 
1 1 1 1 1 1 1 1 1 
1 1 1 1 1 1 1 1 1 
1 1 1 1 1 1 1 1 1 
1 1 1 1 1 1 1 1 1 
1 1 1 1 1 1 1 1 1 
1 1 1 1 1 1 1 1 1 
1 1 1 1 1 1 1 1 1 
1 1 1 1 1 1 1 1 1 
1 1 1 1 1 1 1 1 1 
1 1 1 1 1 1 1 1 1 
1 1 1 1 1 1 1 1 1 
1 1 1 1 1 1 1 1 1 
1 1 1 1 1 1 1 1 1 
1 1 1 1 1 1 1 1 1 
1 1 1 1 1 1 1 1 1 
1 1 1 1 1 1 1 1 1 
1 1 1 1 1 1 1 1 1 
1 1 1 1 1 1 1 1 1 
1 1 1 1 1 1 1 1 1 
1 1 1 1 1 1 1 1 1 
1 1 1 1 1 1 1 1 1 
1 1 1 1 1 1 1 1 1 
1 1 1 1 1 1 1 1 1 
1 1 1 1 1 1 1 1 1 
1 1 1 1 1 1 1 1 1 
1 1 1 1 1 1 1 1 1 
1 1 1 1 1 1 1 1 1 
1 1 1 1 1 1 1 1 1 
1 1 1 1 1 1 1 1 1 
1 1 1 1 1 1 1 1 1 
1 1 1 1 1 1 1 1 1 
1 1 1 1 1 1 1 1 1 
1 1 1 1 1 1 1 1 1 
1 1 1 1 1 1 1 1 1 
1 1 1 1 1 1 1 1 1 
1 1 1 1 1 1 1 1 1 
1 1 1 1 1 1 1 1 1 
1 1 1 1 1 1 1 1 1 
1 1 1 1 1 1 1 1 1 
1 1 1 1 1 1 1 1 1 
1 1 1 1 1 1 1 1 1 
1 1 1 1 1 1 1 1 1 
1 1 1 1 1 1 1 1 1 
1 1 1 1 1 1 1 1 1 
1 1 1 1 1 1 1 1 1 
1 1 1 1 1 1 1 1 1 
1 1 1 1 1 1 1 1 1 
1 1 1 1 1 1 1 1 1 
1 1 1 1 1 1 1 1 1 
1 1 1 1 1 1 1 1 1 
1 1 1 1 1 1 1 1 1 
1 1 1 1 1 1 1 1 1 
1 1 1 1 1 1 1 1 1 
1 1 1 1 1 1 1 1 1 
1 1 1 1 1 1 1 1 1 
1 1 1 1 1 1 1 1 1 
1 1 1 1 1 1 1 1 1 
1 1 1 1 1 1 1 1 1 
1 1 1 1 1 1 1 1 1 
1 1 1 1 1 1 1 1 1 
1 1 1 1 1 1 1 1 1 
1 1 1 1 1 1 1 1 1 
1 1 1 1 1 1 1 1 1 
1 1 1 1 1 1 1 1 1 
1 1 1 1 1 1 1 1 1 
1 1 1 1 1 1 1 1 1 
1 1 1 1 1 1 1 1 1 
1 1 1 1 1 1 1 1 1 
1 1 1 1 1 1 1 1 1 
1 1 1 1 1 1 1 1 1 
1 1 1 1 1 1 1 1 1 
1 1 1 1 1 1 1 1 1 
1 1 1 1 1 1 1 1 1 
1 1 1 1 1 1 1 1 1 
1 1 1 1 1 1 1 1 1 
1 1 1 1 1 1 1 1 1 
1 1 1 1 1 1 1 1 1 
1 1 1 1 1 1 1 1 1 
1 1 1 1 1 1 1 1 1 
1 1 1 1 1 1 1 1 1 
1 1 1 1 1 1 1 1 1 
1 1 1 1 1 1 1 1 1 
1 1 1 1 1 1 1 1 1 
1 1 1 1 1 1 1 1 1 
1 1 1 1 1 1 1 1 1 
1 1 1 1 1 1 1 1 1 
1 1 1 1 1 1 1 1 1 
1 1 1 1 1 1 1 1 1 
1 1 1 1 1 1 1 1 1 
1 1 1 1 1 1 1 1 1 
1 1 1 1 1 1 1 1 1 
1 1 1 1 1 1 1 1 1 
1 1 1 1 1 1 1 1 1 
1 1 1 1 1 1 1 1 1 
1 1 1 1 1 1 1 1 1 
1 1 1 1 1 1 1 1 1 
1 1 1 1 1 1 1 1 1 
1 1 1 1 1 1 1 1 1 
1 1 1 1 1 1 1 1 1 
1 1 1 1 1 1 1 1 1 
1 1 1 1 1 1 1 1 1 
1 1 1 1 1 1 1 1 1 
1 1 1 1 1 1 1 1 1 
1 1 1 1 1 1 1 1 1 
1 1 1 1 1 1 1 1 1 
1 1 1 1 1 1 1 1 1 
1 1 1 1 1 1 1 1 1 
1 1 1 1 1 1 1 1 1 
1 1 1 1 1 1 1 1 1 
1 1 1 1 1 1 1 1 1 
1 1 1 1 1 1 1 1 1 
1 1 1 1 1 1 1 1 1 
1 1 1 1 1 1 1 1 1 
1 1 1 1 1 1 1 1 1 
1 1 1 1 1 1 1 1 1 
1 1 1 1 1 1 1 1 1 
1 1 1 1 1 1 1 1 1 
1 1 1 1 1 1 1 1 1 
1 1 1 1 1 1 1 1 1 
1 1 1 1 1 1 1 1 1 
1 1 1 1 1 1 1 1 1 
1 1 1 1 1 1 1 1 1 
1 1 1 1 1 1 1 1 1 
1 1 1 1 1 1 1 1 1 
1 1 1 1 1 1 1 1 1 
1 1 1 1 1 1 1 1 1 
1 1 1 1 1 1 1 1 1 
1 1 1 1 1 1 1 1 1 
1 1 1 1 1 1 1 1 1 
1 1 1 1 1 1 1 1 1 
1 1 1 1 1 1 1 1 1 
1 1 1 1 1 1 1 1 1 
1 1 1 1 1 1 1 1 1 
1 1 1 1 1 1 1 1 1 
1 1 1 1 1 1 1 1 1 
1 1 1 1 1 1 1 1 1 
1 1 1 1 1 1 1 1 1 
1 1 1 1 1 1 1 1 1 
1 1 1 1 1 1 1 1 1 
1 1 1 1 1 1 1 1 1 
1 1 1 1 1 1 1 1 1 
1 1 1 1 1 1 1 1 1 
1 1 1 1 1 1 1 1 1 
1 1 1 1 1 1 1 1 1 
1 1 1 1 1 1 1 1 1 
1 1 1 1 1 1 1 1 1 
1 1 1 1 1 1 1 1 1 
1 1 1 1 1 1 1 1 1 
1 1 1 1 1 1 1 1 1 
1 1 1 1 1 1 1 1 1 
1 1 1 1 1 1 1 1 1 
1 1 1 1 1 1 1 1 1 
1 1 1 1 1 1 1 1 1 
1 1 1 1 1 1 1 1 1 
1 1 1 1 1 1 1 1 1 
1 1 1 1 1 1 1 1 1 
1 1 1 1 1 1 1 1 1 
1 1 1 1 1 1 1 1 1 
1 1 1 1 1 1 1 1 1 
1 1 1 1 1 1 1 1 1 
1 1 1 1 1 1 1 1 1 
1 1 1 1 1 1 1 1 1 
1 1 1 1 1 1 1 1 1 
1 1 1 1 1 1 1 1 1 
1 1 1 1 1 1 1 1 1 
1 1 1 1 1 1 1 1 1 
1 1 1 1 1 1 1 1 1 
1 1 1 1 1 1 1 1 1 
1 1 1 1 1 1 1 1 1 
1 1 1 1 1 1 1 1 1 
1 1 1 1 1 1 1 1 1 
1 1 1 1 1 1 1 1 1 
1 1 1 1 1 1 1 1 1 
1 1 1 1 1 1 1 1 1 
1 1 1 1 1 1 1 1 1 
1 1 1 1 1 1 1 1 1 
1 1 1 1 1 1 1 1 1 
1 1 1 1 1 1 1 1 1 
1 1 1 1 1 1 1 1 1 
1 1 1 1 1 1 1 1 1 
1 1 1 1 1 1 1 1 1 
1 1 1 1 1 1 1 1 1 
1 1 1 1 1 1 1 1 1 
1 1 1 1 1 1 1 1 1 
1 1 1 1 1 1 1 1 1 
1 1 1 1 1 1 1 1 1 
1 1 1 1 1 1 1 1 1 
1 1 1 1 1 1 1 1 1 
1 1 1 1 1 1 1 1 1 
1 1 1 1 1 1 1 1 1 
1 1 1 1 1 1 1 1 1 
1 1 1 1 1 1 1 1 1 
1 1 1 1 1 1 1 1 1 
1 1 1 1 1 1 1 1 1 
1 1 1 1 1 1 1 1 1 
1 1 1 1 1 1 1 1 1 
1 1 1 1 1 1 1 1 1 
1 1 1 1 1 1 1 1 1 
1 1 1 1 1 1 1 1 1 
1 1 1 1 1 1 1 1 1 
1 1 1 1 1 1 1 1 1 
1 1 1 1 1 1 1 1 1 
1 1 1 1 1 1 1 1 1 
1 1 1 1 1 1 1 1 1 
1 1 1 1 1 1 1 1 1 
1 1 1 1 1 1 1 1 1 
1 1 1 1 1 1 1 1 1 
1 1 1 1 1 1 1 1 1 
1 1 1 1 1 1 1 1 1 
1 1 1 1 1 1 1 1 1 
1 1 1 1 1 1 1 1 1 
1 1 1 1 1 1 1 1 1 
1 1 1 1 1 1 1 1 1 
1 1 1 1 1 1 1 1 1 
1 1 1 1 1 1 1 1 1 
1 1 1 1 1 1 1 1 1 
1 1 1 1 1 1 1 1 1 
1 1 1 1 1 1 1 1 1 
1 1 1 1 1 1 1 1 1 
1 1 1 1 1 1 1 1 1 
1 1 1 1 1 1 1 1 1 
1 1 1 1 1 1 1 1 1 
1 1 1 1 1 1 1 1 1 
1 1 1 1 1 1 1 1 1 
1 1 1 1 1 1 1 1 1 
1 1 1 1 1 1 1 1 1 
1 1 1 1 1 1 1 1 1 
1 1 1 1 1 1 1 1 1 
1 1 1 1 1 1 1 1 1 
1 1 1 1 1 1 1 1 1 
1 1 1 1 1 1 1 1 1 
1 1 1 1 1 1 1 1 1 
1 1 1 1 1 1 1 1 1 
1 1 1 1 1 1 1 1 1 
1 1 1 1 1 1 1 1 1 
1 1 1 1 1 1 1 1 1 
1 1 1 1 1 1 1 1 1 
1 1 1 1 1 1 1 1 1 
1 1 1 1 1 1 1 1 1 
1 1 1 1 1 1 1 1 1 
1 1 1 1 1 1 1 1 1 
1 1 1 1 1 1 1 1 1 
1 1 1 1 1 1 1 1 1 
1 1 1 1 1 1 1 1 1 
1 1 1 1 1 1 1 1 1 
1 1 1 1 1 1 1 1 1 
1 1 1 1 1 1 1 1 1 
1 1 1 1 1 1 1 1 1 
1 1 1 1 1 1 1 1 1 
1 1 1 1 1 1 1 1 1 
1 1 1 1 1 1 1 1 1 
1 1 1 1 1 1 1 1 1 
1 1 1 1 1 1 1 1 1 
1 1 1 1 1 1 1 1 1 
1 1 1 1 1 1 1 1 1 
1 1 1 1 1 1 1 1 1 
1 1 1 1 1 1 1 1 1 
1 1 1 1 1 1 1 1 1 
1 1 1 1 1 1 1 1 1 
1 1 1 1 1 1 1 1 1 
1 1 1 1 1 1 1 1 1 
1 1 1 1 1 1 1 1 1 
1 1 1 1 1 1 1 1 1 
1 1 1 1 1 1 1 1 1 
1 1 1 1 1 1 1 1 1 
1 1 1 1 1 1 1 1 1 
1 1 1 1 1 1 1 1 1 
1 1 1 1 1 1 1 1 1 
1 1 1 1 1 1 1 1 1 
1 1 1 1 1 1 1 1 1 
1 1 1 1 1 1 1 1 1 
1 1 1 1 1 1 1 1 1 
1 1 1 1 1 1 1 1 1 
1 1 1 1 1 1 1 1 1 
1 1 1 1 1 1 1 1 1 
1 1 1 1 1 1 1 1 1 
1 1 1 1 1 1 1 1 1 
1 1 1 1 1 1 1 1 1 
1 1 1 1 1 1 1 1 1 
1 1 1 1 1 1 1 1 1 
1 1 1 1 1 1 1 1 1 
1 1 1 1 1 1 1 1 1 
1 1 1 1 1 1 1 1 1 
1 1 1 1 1 1 1 1 1 
1 1 1 1 1 1 1 1 1 
1 1 1 1 1 1 1 1 1 
1 1 1 1 1 1 1 1 1 
1 1 1 1 1 1 1 1 1 
1 1 1 1 1 1 1 1 1 
1 1 1 1 1 1 1 1 1 
1 1 1 1 1 1 1 1 1 
1 1 1 1 1 1 1 1 1 
1 1 1 1 1 1 1 1 1 
1 1 1 1 1 1 1 1 1 
1 1 1 1 1 1 1 1 1 
1 1 1 1 1 1 1 1 1 
1 1 1 1 1 1 1 1 1 
1 1 1 1 1 1 1 1 1 
1 1 1 1 1 1 1 1 1 
1 1 1 1 1 1 1 1 1 
1 1 1 1 1 1 1 1 1 
1 1 1 1 1 1 1 1 1 
1 1 1 1 1 1 1 1 1 
1 1 1 1 1 1 1 1 1 
1 1 1 1 1 1 1 1 1 
1 1 1 1 1 1 1 1 1 
1 1 1 1 1 1 1 1 1 
1 1 1 1 1 1 1 1 1 
1 1 1 1 1 1 1 1 1 
1 1 1 1 1 1 1 1 1 
1 1 1 1 1 1 1 1 1 
1 1 1 1 1 1 1 1 1 
1 1 1 1 1 1 1 1 1 
1 1 1 1 1 1 1 1 1 
1 1 1 1 1 1 1 1 1 
1 1 1 1 1 1 1 1 1 
1 1 1 1 1 1 1 1 1 
1 1 1 1 1 1 1 1 1 
1 1 1 1 1 1 1 1 1 
1 1 1 1 1 1 1 1 1 
1 1 1 1 1 1 1 1 1 
1 1 1 1 1 1 1 1 1 
1 1 1 1 1 1 1 1 1 
1 1 1 1 1 1 1 1 1 
1 1 1 1 1 1 1 1 1 
1 1 1 1 1 1 1 1 1 
1 1 1 1 1 1 1 1 1 
1 1 1 1 1 1 1 1 1 
1 1 1 1 1 1 1 1 1 
1 1 1 1 1 1 1 1 1 
1 1 1 1 1 1 1 1 1 
1 1 1 1 1 1 1 1 1 
1 1 1 1 1 1 1 1 1 
1 1 1 1 1 1 1 1 1 
1 1 1 1 1 1 1 1 1 
1 1 1 1 1 1 1 1 1 
1 1 1 1 1 1 1 1 1 
1 1 1 1 1 1 1 1 1 
1 1 1 1 1 1 1 1 1 
1 1 1 1 1 1 1 1 1 
1 1 1 1 1 1 1 1 1 
1 1 1 1 1 1 1 1 1 
1 1 1 1 1 1 1 1 1 
1 1 1 1 1 1 1 1 1 
1 1 1 1 1 1 1 1 1 
1 1 1 1 1 1 1 1 1 
1 1 1 1 1 1 1 1 1 
1 1 1 1 1 1 1 1 1 
1 1 1 1 1 1 1 1 1 
1 1 1 1 1 1 1 1 1 
1 1 1 1 1 1 1 1 1 
1 1 1 1 1 1 1 1 1 
1 1 1 1 1 1 1 1 1 
1 1 1 1 1 1 1 1 1 
1 1 1 1 1 1 1 1 1 
1 1 1 1 1 1 1 1 1 
1 1 1 1 1 1 1 1 1 
1 1 1 1 1 1 1 1 1 
1 1 1 1 1 1 1 1 1 
1 1 1 1 1 1 1 1 1 
1 1 1 1 1 1 1 1 1 
1 1 1 1 1 1 1 1 1 
1 1 1 1 1 1 1 1 1 
1 1 1 1 1 1 1 1 1 
1 1 1 1 1 1 1 1 1 
1 1 1 1 1 1 1 1 1 
1 1 1 1 1 1 1 1 1 
1 1 1 1 1 1 1 1 1 
1 1 1 1 1 1 1 1 1 
1 1 1 1 1 1 1 1 1 
1 1 1 1 1 1 1 1 1 
1 1 1 1 1 1 1 1 1 
1 1 1 1 1 1 1 1 1 
1 1 1 1 1 1 1 1 1 
1 1 1 1 1 1 1 1 1 
1 1 1 1 1 1 1 1 1 
1 1 1 1 1 1 1 1 1 
1 1 1 1 1 1 1 1 1 
1 1 1 1 1 1 1 1 1 
1 1 1 1 1 1 1 1 1 
1 1 1 1 1 1 1 1 1 
1 1 1 1 1 1 1 1 1 
1 1 1 1 1 1 1 1 1 
1 1 1 1 1 1 1 1 1 
1 1 1 1 1 1 1 1 1 
1 1 1 1 1 1 1 1 1 
1 1 1 1 1 1 1 1 1 
1 1 1 1 1 1 1 1 1 
1 1 1 1 1 1 1 1 1 
1 1 1 1 1 1 1 1 1 
1 1 1 1 1 1 1 1 1 
1 1 1 1 1 1 1 1 1 
1 1 1 1 1 1 1 1 1 
1 1 1 1 1 1 1 1 1 
1 1 1 1 1 1 1 1 1 
1 1 1 1 1 1 1 1 1 
1 1 1 1 1 1 1 1 1 
1 1 1 1 1 1 1 1 1 
1 1 1 1 1 1 1 1 1 
1 1 1 1 1 1 1 1 1 
1 1 1 1 1 1 1 1 1 
1 1 1 1 1 1 1 1 1 
1 1 1 1 1 1 1 1 1 
1 1 1 1 1 1 1 1 1 
1 1 1 1 1 1 1 1 1 
1 1 1 1 1 1 1 1 1 
1 1 1 1 1 1 1 1 1 
1 1 1 1 1 1 1 1 1 
1 1 1 1 1 1 1 1 1 
1 1 1 1 1 1 1 1 1 
1 1 1 1 1 1 1 1 1 
1 1 1 1 1 1 1 1 1 
1 1 1 1 1 1 1 1 1 
1 1 1 1 1 1 1 1 1 
1 1 1 1 1 1 1 1 1 
1 1 1 1 1 1 1 1 1 
1 1 1 1 1 1 1 1 1 
1 1 1 1 1 1 1 1 1 
1 1 1 1 1 1 1 1 1 
1 1 1 1 1 1 1 1 1 
1 1 1 1 1 1 1 1 1 
1 1 1 1 1 1 1 1 1 
1 1 1 1 1 1 1 1 1 
1 1 1 1 1 1 1 1 1 
1 1 1 1 1 1 1 1 1 
1 1 1 1 1 1 1 1 1 
1 1 1 1 1 1 1 1 1 
1 1 1 1 1 1 1 1 1 
1 1 1 1 1 1 1 1 1 
1 1 1 1 1 1 1 1 1 
1 1 1 1 1 1 1 1 1 
1 1 1 1 1 1 1 1 1 
1 1 1 1 1 1 1 1 1 
1 1 1 1 1 1 1 1 1 
1 1 1 1 1 1 1 1 1 
1 1 1 1 1 1 1 1 1 
1 1 1 1 1 1 1 1 1 
1 1 1 1 1 1 1 1 1 
1 1 1 1 1 1 1 1 1 
1 1 1 1 1 1 1 1 1 
1 1 1 1 1 1 1 1 1 
1 1 1 1 1 1 1 1 1 
1 1 1 1 1 1 1 1 1 
1 1 1 1 1 1 1 1 1 
1 1 1 1 1 1 1 1 1 
1 1 1 1 1 1 1 1 1 
1 1 1 1 1 1 1 1 1 
1 1 1 1 1 1 1 1 1 
1 1 1 1 1 1 1 1 1 
1 1 1 1 1 1 1 1 1 
1 1 1 1 1 1 1 1 1 
1 1 1 1 1 1 1 1 1 
1 1 1 1 1 1 1 1 1 
1 1 1 1 1 1 1 1 1 
1 1 1 1 1 1 1 1 1 
1 1 1 1 1 1 1 1 1 
1 1 1 1 1 1 1 1 1 
1 1 1 1 1 1 1 1 1 
1 1 1 1 1 1 1 1 1 
1 1 1 1 1 1 1 1 1 
1 1 1 1 1 1 1 1 1 
1 1 1 1 1 1 1 1 1 
1 1 1 1 1 1 1 1 1 
1 1 1 1 1 1 1 1 1 
1 1 1 1 1 1 1 1 1 
1 1 1 1 1 1 1 1 1 
1 1 1 1 1 1 1 1 1 
1 1 1 1 1 1 1 1 1 
1 1 1 1 1 1 1 1 1 
1 1 1 1 1 1 1 1 1 
1 1 1 1 1 1 1 1 1 
1 1 1 1 1 1 1 1 1 
1 1 1 1 1 1 1 1 1 
1 1 1 1 1 1 1 1 1 
1 1 1 1 1 1 1 1 1 
1 1 1 1 1 1 1 1 1 
1 1 1 1 1 1 1 1 1 
1 1 1 1 1 1 1 1 1 
1 1 1 1 1 1 1 1 1 
1 1 1 1 1 1 1 1 1 
1 1 1 1 1 1 1 1 1 
1 1 1 1 1 1 1 1 1 
1 1 1 1 1 1 1 1 1 
1 1 1 1 1 1 1 1 1 
1 1 1 1 1 1 1 1 1 
1 1 1 1 1 1 1 1 1 
1 1 1 1 1 1 1 1 1 
1 1 1 1 1 1 1 1 1 
1 1 1 1 1 1 1 1 1 
1 1 1 1 1 1 1 1 1 
1 1 1 1 1 1 1 1 1 
1 1 1 1 1 1 1 1 1 
1 1 1 1 1 1 1 1 1 
1 1 1 1 1 1 1 1 1 
1 1 1 1 1 1 1 1 1 
1 1 1 1 1 1 1 1 1 
1 1 1 1 1 1 1 1 1 
1 1 1 1 1 1 1 1 1 
1 1 1 1 1 1 1 1 1 
1 1 1 1 1 1 1 1 1 
1 1 1 1 1 1 1 1 1 
1 1 1 1 1 1 1 1 1 
1 1 1 1 1 1 1 1 1 
1 1 1 1 1 1 1 1 1 
1 1 1 1 1 1 
NORMALS normals float
-0.0830455 0 -0.996546 -0.0613139 -0.674453 -0.735767 -0.996546 0 -0.0830455 
0 0 -1 0 -0.675725 -0.737154 0 0 -1 
0 -0.675725 -0.737154 0 0 -1 0 -0.675725 -0.737154 
0 0 -1 0 -0.675725 -0.737154 0 0 -1 
0 -0.675725 -0.737154 0 0 -1 0 -0.675725 -0.737154 
0 0 -1 0 -0.675725 -0.737154 0 0 -1 
0 -0.675725 -0.737154 0 0 -1 0 -0.675725 -0.737154 
0 0 -1 0 -0.675725 -0.737154 0.0827606 -0.0827606 -0.993127 
0.0588235 -0.705882 -0.705882 0.705882 -0.0588235 -0.705882 -0.0613139 0.674453 -0.735767 
0 0.675725 -0.737154 0 0.675725 -0.737154 0 0.675725 -0.737154 
0 0.675725 -0.737154 0 0.675725 -0.737154 0 0.675725 -0.737154 
0 0.675725 -0.737154 0 0.675725 -0.737154 0 0.675725 -0.737154 
-0.559885 0.559885 -0.610784 -0.543915 0.593362 -0.593362 0 0.0830455 -0.996546 
0.674453 0.0613139 -0.735767 0 0.707107 -0.707107 -0.0827606 -0.0827606 -0.993127 
-0.0827606 -0.993127 -0.0827606 -0.57735 -0.57735 -0.57735 0.0827606 -0.0827606 -0.993127 
0.0827606 -0.993127 -0.0827606 0.993127 -0.0827606 -0.0827606 -0.0827606 -0.0827606 -0.993127 
-0.57735 -0.57735 -0.57735 -0.57735 -0.57735 -0.57735 0 0 -1 
0.0830455 0 -0.996546 0.090167 -0.991837 -0.090167 0 -0.0830455 -0.996546 
0 -0.996546 -0.0830455 0 -0.996546 -0.0830455 0.543915 -0.593362 -0.593362 
-0.0827606 -0.0827606 -0.993127 -0.57735 -0.57735 -0.57735 -0.705882 -0.0588235 -0.705882 
0 0 -1 0 0 -1 0 0 -1 
0 -0.996546 -0.0830455 0 -0.0830455 -0.996546 0 0 -1 
0.543915 -0.593362 -0.593362 0 -0.0830455 -0.996546 0.0827606 -0.0827606 -0.993127 
0.0827606 -0.993127 -0.0827606 0.993127 -0.0827606 -0.0827606 -0.0830455 0 -0.996546 
-0.707107 0 -0.707107 0 0 -1 0 0 -1 
0 0 -1 0 0 -1 0 0 -1 
0 0 -1 0.0830455 0 -0.996546 0.735767 -0.674453 -0.0613139 
-0.0830455 0 -0.996546 -0.593362 -0.543915 -0.593362 0 0 -1 
0 0 -1 0 0 -1 0 0 -1 
0 0 -1 0 0 -1 0 0 -1 
0.674453 -0.735767 -0.0613139 0 -0.0830455 -0.996546 0 -0.0830455 -0.996546 
0 -0.996546 -0.0830455 0 -0.0830455 -0.996546 0 -0.996546 -0.0830455 
0.0827606 -0.0827606 -0.993127 0.0588235 -0.705882 -0.705882 0.993127 -0.0827606 -0.0827606 
-0.0827606 -0.0827606 -0.993127 -0.57735 -0.57735 -0.57735 -0.57735 -0.57735 -0.57735 
0 0 -1 0 0 -1 0 0 -1 
0 0 -1 0 0 -1 0 0 -1 
0 0 -1 0 0 -1 0 0 -1 
0 0 -1 0 0 -1 0.0830455 0 -0.996546 
0.996546 0 -0.0830455 -0.0588235 -0.705882 -0.705882 -0.57735 -0.57735 -0.57735 
-0.705882 -0.0588235 -0.705882 0 -0.675725 -0.737154 0 -0.675725 -0.737154 
0 -0.675725 -0.737154 0 -0.675725 -0.737154 0 -0.675725 -0.737154 
0 -0.675725 -0.737154 0 -0.675725 -0.737154 0 -0.675725 -0.737154 
0 -0.675725 -0.737154 0 -0.675725 -0.737154 0 -0.675725 -0.737154 
0 0 -1 0.0830455 0 -0.996546 0.996546 0 -0.0830455 
-0.737154 0 -0.675725 0.675725 0 -0.737154 0.0830455 0 -0.996546 
0.996546 0 -0.0830455 -0.0613139 0.674453 -0.735767 -0.996546 0 -0.0830455 
0 0.675725 -0.737154 0 0.675725 -0.737154 0 0.675725 -0.737154 
0 0.675725 -0.737154 0 0.675725 -0.737154 0 0.675725 -0.737154 
0 0.675725 -0.737154 0 0.675725 -0.737154 0 0.675725 -0.737154 
-0.559885 0.559885 -0.610784 0.675725 0 -0.737154 0.090167 0.090167 -0.991837 
0.996546 0.0830455 0 -0.090167 0.090167 -0.991837 -0.996546 0.0830455 0 
0 0.0905357 -0.995893 0 0.0905357 -0.995893 0 0.0905357 -0.995893 
0 0.0905357 -0.995893 0 0.0905357 -0.995893 0 0.0905357 -0.995893 
0 0.0905357 -0.995893 0 0.0905357 -0.995893 0 0.0905357 -0.995893 
0 0.0905357 -0.995893 0 0.737154 -0.675725 0.090167 0.090167 -0.991837 
0.707107 0.707107 0 0.707107 0.707107 0 -0.0830455 0.996546 0 
0 1 0 0 1 0 0 1 0 
0 1 0 0 1 0 0 1 0 
0 1 0 0 1 0 0 1 0 
0 1 0 0 1 0 0.0830455 0.996546 0 
-0.0827606 -0.0827606 -0.993127 -0.0588235 -0.705882 -0.705882 -0.705882 -0.0588235 -0.705882 
0 0 -1 0 -0.675725 -0.737154 0.0827606 -0.0827606 -0.993127 
0.0588235 -0.705882 -0.705882 0.705882 -0.705882 -0.0588235 0 0 -1 
-0.675725 0 -0.737154 0 0 -1 0 0 -1 
-0.0830455 0 -0.996546 -0.593362 -0.543915 -0.593362 0.675725 -0.737154 0 
0.0830455 -0.996546 0 0.996546 -0.0830455 0 -0.0830455 0 -0.996546 
-0.707107 0 -0.707107 0 -0.0830455 -0.996546 -0.543915 -0.593362 -0.593362 
0.0905357 -0.995893 0 -0.0827606 -0.993127 0.0827606 -0.0827606 -0.993127 0.0827606 
0.593362 -0.593362 -0.543915 0.0830455 -0.996546 0 0.707107 -0.707107 0 
-0.707107 0 -0.707107 -0.707107 0 -0.707107 0 -1 0 
0.707107 -0.707107 0 0.996546 -0.0830455 0 -0.707107 0 -0.707107 
-0.707107 0 -0.707107 0.737154 -0.675725 0 0 -0.707107 -0.707107 
0 -0.996546 -0.0830455 -0.674453 -0.735767 -0.0613139 0.991837 -0.090167 -0.090167 
-0.593362 -0.543915 -0.593362 -0.593362 -0.543915 -0.593362 0.675725 -0.737154 0 
0 -1 0 -0.675725 -0.737154 0 0.737154 0 -0.675725 
-0.0827606 -0.0827606 -0.993127 -0.0588235 -0.705882 -0.705882 -0.705882 -0.0588235 -0.705882 
-0.543915 -0.593362 -0.593362 -0.543915 -0.593362 -0.593362 0.737154 0 -0.675725 
-0.707107 0 -0.707107 -0.707107 0 -0.707107 1 0 0 
-0.705882 0.0588235 -0.705882 -0.705882 0.0588235 -0.705882 0.993127 0.0827606 0.0827606 
-0.705882 0.705882 -0.0588235 -0.705882 0.705882 0.0588235 0.593362 0.593362 0.543915 
0.57735 0.57735 0.57735 0.57735 0.57735 0.57735 -0.0588235 0.705882 0.705882 
-0.0613139 0.735767 0.674453 0 0.707107 0.707107 0 0.737154 0.675725 
0 0.707107 0.707107 0 0.737154 0.675725 0 0.707107 0.707107 
0 0.737154 0.675725 0 0.707107 0.707107 0 0.737154 0.675725 
0 0.707107 0.707107 0 0.737154 0.675725 0 0.707107 0.707107 
0 0.737154 0.675725 0 0.707107 0.707107 0 0.737154 0.675725 
0 0.707107 0.707107 0 0.737154 0.675725 0 0.707107 0.707107 
0 0.737154 0.675725 0 0.707107 0.707107 0 0.737154 0.675725 
0 0.707107 0.707107 0 0.737154 0.675725 0.0588235 0.705882 0.705882 
0.0613139 0.735767 0.674453 0 -0.0830455 -0.996546 0 -0.996546 -0.0830455 
-0.674453 -0.735767 -0.0613139 0.674453 -0.735767 -0.0613139 -0.0827606 -0.0827606 -0.993127 
-0.705882 -0.705882 -0.0588235 -0.993127 -0.0827606 -0.0827606 0 -0.675725 -0.737154 
0.674453 -0.735767 -0.0613139 0 -0.707107 -0.707107 0.0588235 -0.705882 -0.705882 
0.0827606 -0.993127 -0.0827606 0.993127 -0.0827606 -0.0827606 -0.707107 0 -0.707107 
-0.996546 0 -0.0830455 0.737154 -0.675725 0 -0.707107 0 -0.707107 
-0.996546 0 -0.0830455 0 0 -1 0.675725 -0.737154 0 
0.0830455 -0.996546 0 0.996546 -0.0830455 0 -0.707107 0 -0.707107 
-0.707107 0 -0.707107 0.737154 -0.675725 0 -0.0588235 -0.705882 0.705882 
0.0613139 -0.735767 0.674453 -0.707107 0 -0.707107 -0.593362 -0.543915 -0.593362 
0.675725 -0.737154 0 0 -0.737154 0.675725 0 -0.737154 0.675725 
0.0830455 -0.996546 0 0.996546 -0.0830455 0 -0.0827606 -0.0827606 -0.993127 
-0.57735 -0.57735 -0.57735 -0.57735 -0.57735 -0.57735 -0.675725 0 -0.737154 
0.610784 -0.559885 -0.559885 0 -0.737154 -0.675725 -0.559885 -0.610784 -0.559885 
0.559885 -0.610784 -0.559885 -0.0827606 -0.0827606 -0.993127 -0.57735 -0.57735 -0.57735 
-0.705882 -0.0588235 -0.705882 0 -0.675725 -0.737154 -0.559885 -0.559885 -0.610784 
0.559885 -0.610784 -0.559885 0 -0.737154 -0.675725 -0.559885 -0.610784 -0.559885 
0.543915 -0.593362 -0.593362 0.674453 -0.0613139 -0.735767 0.0830455 0 -0.996546 
0.090167 -0.991837 -0.090167 0.996546 0 -0.0830455 -0.707107 0 -0.707107 
-0.707107 0 -0.707107 0.705882 0.0588235 -0.705882 0.705882 0.705882 -0.0588235 
0.735767 0.674453 -0.0613139 -0.707107 0 -0.707107 -0.996546 0 -0.0830455 
0.707107 0.707107 0 0.705882 0.705882 -0.0588235 -0.735767 0.0613139 -0.674453 
-0.996546 0.0830455 0 0.57735 0.57735 0.57735 0.593362 0.593362 0.543915 
0.593362 0.593362 0.543915 -0.0830455 0.996546 0 0 0.996546 0.0830455 