# vtk DataFile Version 3.0
vtk output
ASCII
DATASET POLYDATA
POINTS 7626 float
105 185 68.0417 105 184.042 69 104.042 185 69 
105.958 185 69 105 185.958 69 107 170 69.0417 
107 169.042 70 106.042 170 70 108 170 69.0417 
108 169.042 70 108.958 170 70 106 171 69.0417 
106 170.042 70 105.042 171 70 107 171 69.0417 
107.958 171 70 108 170.958 70 105 172 69.0417 
105 171.042 70 104.042 172 70 106 172 69.0417 
106.958 172 70 107 171.958 70 105 173 69.0417 
104.042 173 70 106 173 69.0417 106.958 173 70 
105 174 69.0417 104.042 174 70 106 174 69.0417 
106.958 174 70 105 175 69.0417 104.042 175 70 
106 175 69.0417 106.958 175 70 105 175.958 70 
106 175.958 70 105 182 69.0417 105 181.042 70 
104.042 182 70 106 182 69.0417 106 181.042 70 
106.958 182 70 105 183 69.0417 104.042 183 70 
106 183 69.0417 106.958 183 70 105 184 69.0417 
104.042 184 70 106 184 69.0417 106.958 184 70 
104.042 185 70 106 185 69.0417 106.958 185 70 
105 186 69.0417 104.042 186 70 106 186 69.0417 
106.958 186 70 105 187 69.0417 104.042 187 70 
105.958 187 70 106 186.958 70 105 187.958 70 
106 169 70.0417 106 168.042 71 105.042 169 71 
106.958 169 71 106 170 70.0417 105.042 170 71 
107 169.042 71 108 169.042 71 108.958 170 71 
104 171 70.0417 104 170.042 71 103.042 171 71 
105 171 70.0417 105 170.042 71 107.958 171 71 
108 170.958 71 104 172 70.0417 103.042 172 71 
106.958 172 71 107 171.958 71 104 173 70.0417 
103.042 173 71 106.958 173 71 104 174 70.0417 
103.042 174 71 106.958 174 71 104 175 70.0417 
103.042 175 71 106.958 175 71 104 175.958 71 
105 175.958 71 106 175.958 71 104 181 70.0417 
104 180.042 71 103.042 181 71 105 181 70.0417 
105 180.042 71 106 181 70.0417 106 180.042 71 
106.958 181 71 104 182 70.0417 103.042 182 71 
106.958 182 71 104 183 70.0417 103.042 183 71 
106.958 183 71 104 184 70.0417 103.042 184 71 
106.958 184 71 104 185 70.0417 103.042 185 71 
106.958 185 71 104 186 70.0417 103.042 186 71 
106.958 186 71 104 187 70.0417 103.042 187 71 
105.958 187 71 106 186.958 71 104 187.958 71 
105 187.958 71 102 189 70.0417 102 188.042 71 
101.042 189 71 103 189 70.0417 103 188.042 71 
103.958 189 71 102 190 70.0417 101.042 190 71 
102.958 190 71 103 189.958 71 102 191 70.0417 
101.042 191 71 102.958 191 71 102 191.958 71 
98 195 70.0417 98 194.042 71 97.0417 195 71 
99 195 70.0417 99 194.042 71 100 195 70.0417 
100 194.042 71 101 195 70.0417 101 194.042 71 
101.958 195 71 98 196 70.0417 97.0417 196 71 
98.9583 196 71 99 195.958 71 99.0417 196 71 
100 196 70.0417 100.958 196 71 101 195.958 71 
98 197 70.0417 97.0417 197 71 99 196.042 71 
99 197 70.0417 100 197 70.0417 101 196.042 71 
101 197 70.0417 101.958 197 71 98 197.958 71 
99 197.958 71 100 197.958 71 101 197.958 71 
103 168 71.0417 103 167.042 72 102.042 168 72 
104 168 71.0417 104 167.042 72 105 168 71.0417 
105 167.042 72 106 168 71.0417 106 167.042 72 
106.958 168 72 102 169 71.0417 102 168.042 72 
101.042 169 72 103 169 71.0417 104 169 71.0417 
105 169 71.0417 106.958 169 72 97 170 71.0417 
97 169.042 72 96.0417 170 72 98 170 71.0417 
98 169.042 72 99 170 71.0417 99 169.042 72 
100 170 71.0417 100 169.042 72 101 170 71.0417 
101 169.042 72 102 170 71.0417 103 170 71.0417 
104 170 71.0417 105 170 71.0417 107 169.042 72 
108 169.042 72 108.958 170 72 96 171 71.0417 
96 170.042 72 95.0417 171 72 97 171 71.0417 
98 171 71.0417 99 171 71.0417 100 171 71.0417 
101 171 71.0417 102 171 71.0417 103 171 71.0417 
107.958 171 72 108 170.958 72 91 172 71.0417 
91 171.042 72 90.0417 172 72 92 172 71.0417 
92 171.042 72 93 172 71.0417 93 171.042 72 
94 172 71.0417 94 171.042 72 95 172 71.0417 
95 171.042 72 96 172 71.0417 97 172 71.0417 
98 172 71.0417 99 172 71.0417 100 172 71.0417 
101 172 71.0417 102 172 71.0417 103 172 71.0417 
106.958 172 72 107 171.958 72 91 173 71.0417 
90.0417 173 72 92 173 71.0417 93 173 71.0417 
94 173 71.0417 95 173 71.0417 96 173 71.0417 
97 173 71.0417 98 173 71.0417 99 173 71.0417 
100 173 71.0417 101 173 71.0417 102 173 71.0417 
103 173 71.0417 106.958 173 72 91 174 71.0417 
90.0417 174 72 92 174 71.0417 93 174 71.0417 
94 174 71.0417 95 174 71.0417 96 174 71.0417 
97 174 71.0417 98 174 71.0417 99 174 71.0417 
100 174 71.0417 101 174 71.0417 102 174 71.0417 
103 174 71.0417 106.958 174 72 91 175 71.0417 
90.0417 175 72 92 175 71.0417 93 175 71.0417 
94 175 71.0417 95 175 71.0417 96 175 71.0417 
97 175 71.0417 98 175 71.0417 99 175 71.0417 
100 175 71.0417 101 175 71.0417 102 175 71.0417 
103 175 71.0417 106.958 175 72 91 176 71.0417 
90.0417 176 72 92 176 71.0417 93 176 71.0417 
94 176 71.0417 95 176 71.0417 96 176 71.0417 
97 176 71.0417 98 176 71.0417 99 176 71.0417 
100 176 71.0417 101 176 71.0417 102 176 71.0417 
103 176 71.0417 104 176 71.0417 105 176 71.0417 
106 176 71.0417 106.958 176 72 91 177 71.0417 
90.0417 177 72 92 177 71.0417 93 177 71.0417 
94 177 71.0417 95 177 71.0417 96 177 71.0417 
97 177 71.0417 98 177 71.0417 99 177 71.0417 
100 177 71.0417 101 177 71.0417 102 177 71.0417 
103 177 71.0417 104 177 71.0417 105 177 71.0417 
106 177 71.0417 106.958 177 72 91 178 71.0417 
90.0417 178 72 92 178 71.0417 93 178 71.0417 
94 178 71.0417 95 178 71.0417 96 178 71.0417 
97 178 71.0417 98 178 71.0417 99 178 71.0417 
100 178 71.0417 101 178 71.0417 102 178 71.0417 
103 178 71.0417 104 178 71.0417 105 178 71.0417 
106 178 71.0417 106.958 178 72 91 179 71.0417 
90.0417 179 72 92 179 71.0417 93 179 71.0417 
94 179 71.0417 95 179 71.0417 96 179 71.0417 
97 179 71.0417 98 179 71.0417 99 179 71.0417 
100 179 71.0417 101 179 71.0417 102 179 71.0417 
103 179 71.0417 104 179 71.0417 105 179 71.0417 
106 179 71.0417 106.958 179 72 91 179.958 72 
92 179.958 72 92.0417 180 72 93 180 71.0417 
94 180 71.0417 95 180 71.0417 96 180 71.0417 
97 180 71.0417 98 180 71.0417 99 180 71.0417 
100 180 71.0417 101 180 71.0417 102 180 71.0417 
103 180 71.0417 104 180 71.0417 105 180 71.0417 
106 180 71.0417 106.958 180 72 93 181 71.0417 
92.0417 181 72 94 181 71.0417 95 181 71.0417 
96 181 71.0417 97 181 71.0417 98 181 71.0417 
99 181 71.0417 100 181 71.0417 101 181 71.0417 
102 181 71.0417 103 181 71.0417 106.958 181 72 
93 182 71.0417 92.0417 182 72 94 182 71.0417 
95 182 71.0417 96 182 71.0417 97 182 71.0417 
98 182 71.0417 99 182 71.0417 100 182 71.0417 
101 182 71.0417 102 182 71.0417 103 182 71.0417 
106.958 182 72 93 183 71.0417 92.0417 183 72 
94 183 71.0417 95 183 71.0417 96 183 71.0417 
97 183 71.0417 98 183 71.0417 99 183 71.0417 
100 183 71.0417 101 183 71.0417 102 183 71.0417 
103 183 71.0417 106.958 183 72 93 184 71.0417 
92.0417 184 72 94 184 71.0417 95 184 71.0417 
96 184 71.0417 97 184 71.0417 98 184 71.0417 
99 184 71.0417 100 184 71.0417 101 184 71.0417 
102 184 71.0417 103 184 71.0417 106.958 184 72 
93 185 71.0417 92.0417 185 72 94 185 71.0417 
95 185 71.0417 96 185 71.0417 97 185 71.0417 
98 185 71.0417 99 185 71.0417 100 185 71.0417 
101 185 71.0417 102 185 71.0417 103 185 71.0417 
106.958 185 72 93 186 71.0417 92.0417 186 72 
94 186 71.0417 95 186 71.0417 96 186 71.0417 
97 186 71.0417 98 186 71.0417 99 186 71.0417 
100 186 71.0417 101 186 71.0417 102 186 71.0417 
103 186 71.0417 106.958 186 72 93 187 71.0417 
92.0417 187 72 94 187 71.0417 95 187 71.0417 
96 187 71.0417 97 187 71.0417 98 187 71.0417 
99 187 71.0417 100 187 71.0417 101 187 71.0417 
102 187 71.0417 103 187 71.0417 105.958 187 72 
106 186.958 72 93 188 71.0417 92.0417 188 72 
94 188 71.0417 95 188 71.0417 96 188 71.0417 
97 188 71.0417 98 188 71.0417 99 188 71.0417 
100 188 71.0417 101 188 71.0417 102 188 71.0417 
103 188 71.0417 104 188 71.0417 104.958 188 72 
105 187.958 72 93 189 71.0417 92.0417 189 72 
94 189 71.0417 95 189 71.0417 96 189 71.0417 
97 189 71.0417 98 189 71.0417 99 189 71.0417 
100 189 71.0417 101 189 71.0417 104 189 71.0417 
104.958 189 72 93 190 71.0417 92.0417 190 72 
94 190 71.0417 95 190 71.0417 96 190 71.0417 
97 190 71.0417 98 190 71.0417 99 190 71.0417 
100 190 71.0417 101 190 71.0417 103 190 71.0417 
104 190 71.0417 104.958 190 72 93 191 71.0417 
92.0417 191 72 94 191 71.0417 95 191 71.0417 
96 191 71.0417 97 191 71.0417 98 191 71.0417 
99 191 71.0417 100 191 71.0417 101 191 71.0417 
103 191 71.0417 103.958 191 72 104 190.958 72 
93 192 71.0417 92.0417 192 72 94 192 71.0417 
95 192 71.0417 96 192 71.0417 97 192 71.0417 
98 192 71.0417 99 192 71.0417 100 192 71.0417 
101 192 71.0417 102 192 71.0417 102.958 192 72 
103 191.958 72 93 193 71.0417 92.0417 193 72 
94 193 71.0417 95 193 71.0417 96 193 71.0417 
97 193 71.0417 98 193 71.0417 99 193 71.0417 
100 193 71.0417 101 193 71.0417 102 193 71.0417 
102.958 193 72 93 194 71.0417 92.0417 194 72 
94 194 71.0417 95 194 71.0417 96 194 71.0417 
97 194 71.0417 98 194 71.0417 99 194 71.0417 
100 194 71.0417 101 194 71.0417 102 194 71.0417 
102.958 194 72 93 195 71.0417 92.0417 195 72 
94 195 71.0417 95 195 71.0417 96 195 71.0417 
97 195 71.0417 102 195 71.0417 102.958 195 72 
93 195.958 72 94 195.958 72 94.0417 196 72 
95 196 71.0417 96 196 71.0417 97 196 71.0417 
99 196 71.0417 101 196 71.0417 102 196 71.0417 
102.958 196 72 95 197 71.0417 94.0417 197 72 
96 197 71.0417 97 197 71.0417 102 197 71.0417 
102.958 197 72 95 197.958 72 96 197.958 72 
97 197.958 72 98 197.958 72 99 198 71.0417 
98.0417 198 72 100 198 71.0417 101 198 71.0417 
102 198 71.0417 102.958 198 72 99 199 71.0417 
98.0417 199 72 100 199 71.0417 101 199 71.0417 
101.958 199 72 102 198.958 72 99 199.958 72 
100 199.958 72 101 199.958 72 103 167.042 73 
102.042 168 73 104 167.042 73 105 167.042 73 
106 168 72.9583 105.958 168 73 102 169 72.9583 
102.042 169 73 106 169 72.9583 105.958 169 73 
97 169.042 73 96.0417 170 73 98 169.042 73 
99 169.042 73 100 169.042 73 101 169.042 73 
102 169.042 73 106 169.042 73 107 169.042 73 
108 170 72.9583 107.958 170 73 96 171 72.9583 
96.0417 171 73 107 171 72.9583 106.958 171 73 
107 170.958 73 91 171.042 73 90.0417 172 73 
92 171.042 73 93 171.042 73 94 171.042 73 
95 171.042 73 96 171.042 73 106.958 172 73 
90.0417 173 73 106.958 173 73 90.0417 174 73 
106.958 174 73 90.0417 175 73 106.958 175 73 
[...]
POINT_DATA 7626
SCALARS scalars float
LOOKUP_TABLE default
1 1 1 1 1 1 1 1 1 
1 1 1 1 1 1 1 1 1 
1 1 1 1 1 1 1 1 1 
1 1 1 1 1 1 1 1 1 
1 1 1 1 1 1 1 1 1 
1 1 1 1 1 1 1 1 1 
1 1 1 1 1 1 1 1 1 
1 1 1 1 1 1 1 1 1 
1 1 1 1 1 1 1 1 1 
1 1 1 1 1 1 1 1 1 
1 1 1 1 1 1 1 1 1 
1 1 1 1 1 1 1 1 1 
1 1 1 1 1 1 1 1 1 
1 1 1 1 1 1 1 1 1 
1 1 1 1 1 1 1 1 1 
1 1 1 1 1 1 1 1 1 
1 1 1 1 1 1 1 1 1 
1 1 1 1 1 1 1 1 1 
1 1 1 1 1 1 1 1 1 
1 1 1 1 1 1 1 1 1 
1 1 1 1 1 1 1 1 1 
1 1 1 1 1 1 1 1 1 
1 1 1 1 1 1 1 1 1 
1 1 1 1 1 1 1 1 1 
1 1 1 1 1 1 1 1 1 
1 1 1 1 1 1 1 1 1 
1 1 1 1 1 1 1 1 1 
1 1 1 1 1 1 1 1 1 
1 1 1 1 1 1 1 1 1 
1 1 1 1 1 1 1 1 1 
1 1 1 1 1 1 1 1 1 
1 1 1 1 1 1 1 1 1 
1 1 1 1 1 1 1 1 1 
1 1 1 1 1 1 1 1 1 
1 1 1 1 1 1 1 1 1 
1 1 1 1 1 1 1 1 1 
1 1 1 1 1 1 1 1 1 
1 1 1 1 1 1 1 1 1 
1 1 1 1 1 1 1 1 1 
1 1 1 1 1 1 1 1 1 
1 1 1 1 1 1 1 1 1 
1 1 1 1 1 1 1 1 1 
1 1 1 1 1 1 1 1 1 
1 1 1 1 1 1 1 1 1 
1 1 1 1 1 1 1 1 1 
1 1 1 1 1 1 1 1 1 
1 1 1 1 1 1 1 1 1 
1 1 1 1 1 1 1 1 1 
1 1 1 1 1 1 1 1 1 
1 1 1 1 1 1 1 1 1 
1 1 1 1 1 1 1 1 1 
1 1 1 1 1 1 1 1 1 
1 1 1 1 1 1 1 1 1 
1 1 1 1 1 1 1 1 1 
1 1 1 1 1 1 1 1 1 
1 1 1 1 1 1 1 1 1 
1 1 1 1 1 1 1 1 1 
1 1 1 1 1 1 1 1 1 
1 1 1 1 1 1 1 1 1 
1 1 1 1 1 1 1 1 1 
1 1 1 1 1 1 1 1 1 
1 1 1 1 1 1 1 1 1 
1 1 1 1 1 1 1 1 1 
1 1 1 1 1 1 1 1 1 
1 1 1 1 1 1 1 1 1 
1 1 1 1 1 1 1 1 1 
1 1 1 1 1 1 1 1 1 
1 1 1 1 1 1 1 1 1 
1 1 1 1 1 1 1 1 1 
1 1 1 1 1 1 1 1 1 
1 1 1 1 1 1 1 1 1 
1 1 1 1 1 1 1 1 1 
1 1 1 1 1 1 1 1 1 
1 1 1 1 1 1 1 1 1 
1 1 1 1 1 1 1 1 1 
1 1 1 1 1 1 1 1 1 
1 1 1 1 1 1 1 1 1 
1 1 1 1 1 1 1 1 1 
1 1 1 1 1 1 1 1 1 
1 1 1 1 1 1 1 1 1 
1 1 1 1 1 1 1 1 1 
1 1 1 1 1 1 1 1 1 
1 1 1 1 1 1 1 1 1 
1 1 1 1 1 1 1 1 1 
1 1 1 1 1 1 1 1 1 
1 1 1 1 1 1 1 1 1 
1 1 1 1 1 1 1 1 1 
1 1 1 1 1 1 1 1 1 
1 1 1 1 1 1 1 1 1 
1 1 1 1 1 1 1 1 1 
1 1 1 1 1 1 1 1 1 
1 1 1 1 1 1 1 1 1 
1 1 1 1 1 1 1 1 1 
1 1 1 1 1 1 1 1 1 
1 1 1 1 1 1 1 1 1 
1 1 1 1 1 1 1 1 1 
1 1 1 1 1 1 1 1 1 
1 1 1 1 1 1 1 1 1 
1 1 1 1 1 1 1 1 1 
1 1 1 1 1 1 1 1 1 
1 1 1 1 1 1 1 1 1 
1 1 1 1 1 1 1 1 1 
1 1 1 1 1 1 1 1 1 
1 1 1 1 1 1 1 1 1 
1 1 1 1 1 1 1 1 1 
1 1 1 1 1 1 1 1 1 
1 1 1 1 1 1 1 1 1 
1 1 1 1 1 1 1 1 1 
1 1 1 1 1 1 1 1 1 
1 1 1 1 1 1 1 1 1 
1 1 1 1 1 1 1 1 1 
1 1 1 1 1 1 1 1 1 
1 1 1 1 1 1 1 1 1 
1 1 1 1 1 1 1 1 1 
1 1 1 1 1 1 1 1 1 
1 1 1 1 1 1 1 1 1 
1 1 1 1 1 1 1 1 1 
1 1 1 1 1 1 1 1 1 
1 1 1 1 1 1 1 1 1 
1 1 1 1 1 1 1 1 1 
1 1 1 1 1 1 1 1 1 
1 1 1 1 1 1 1 1 1 
1 1 1 1 1 1 1 1 1 
1 1 1 1 1 1 1 1 1 
1 1 1 1 1 1 1 1 1 
1 1 1 1 1 1 1 1 1 
1 1 1 1 1 1 1 1 1 
1 1 1 1 1 1 1 1 1 
1 1 1 1 1 1 1 1 1 
1 1 1 1 1 1 1 1 1 
1 1 1 1 1 1 1 1 1 
1 1 1 1 1 1 1 1 1 
1 1 1 1 1 1 1 1 1 
1 1 1 1 1 1 1 1 1 
1 1 1 1 1 1 1 1 1 
1 1 1 1 1 1 1 1 1 
1 1 1 1 1 1 1 1 1 
1 1 1 1 1 1 1 1 1 
1 1 1 1 1 1 1 1 1 
1 1 1 1 1 1 1 1 1 
1 1 1 1 1 1 1 1 1 
1 1 1 1 1 1 1 1 1 
1 1 1 1 1 1 1 1 1 
1 1 1 1 1 1 1 1 1 
1 1 1 1 1 1 1 1 1 
1 1 1 1 1 1 1 1 1 
1 1 1 1 1 1 1 1 1 
1 1 1 1 1 1 1 1 1 
1 1 1 1 1 1 1 1 1 
1 1 1 1 1 1 1 1 1 
1 1 1 1 1 1 1 1 1 
1 1 1 1 1 1 1 1 1 
1 1 1 1 1 1 1 1 1 
1 1 1 1 1 1 1 1 1 
1 1 1 1 1 1 1 1 1 
1 1 1 1 1 1 1 1 1 
1 1 1 1 1 1 1 1 1 
1 1 1 1 1 1 1 1 1 
1 1 1 1 1 1 1 1 1 
1 1 1 1 1 1 1 1 1 
1 1 1 1 1 1 1 1 1 
1 1 1 1 1 1 1 1 1 
1 1 1 1 1 1 1 1 1 
1 1 1 1 1 1 1 1 1 
1 1 1 1 1 1 1 1 1 
1 1 1 1 1 1 1 1 1 
1 1 1 1 1 1 1 1 1 
1 1 1 1 1 1 1 1 1 
1 1 1 1 1 1 1 1 1 
1 1 1 1 1 1 1 1 1 
1 1 1 1 1 1 1 1 1 
1 1 1 1 1 1 1 1 1 
1 1 1 1 1 1 1 1 1 
1 1 1 1 1 1 1 1 1 
1 1 1 1 1 1 1 1 1 
1 1 1 1 1 1 1 1 1 
1 1 1 1 1 1 1 1 1 
1 1 1 1 1 1 1 1 1 
1 1 1 1 1 1 1 1 1 
1 1 1 1 1 1 1 1 1 
1 1 1 1 1 1 1 1 1 
1 1 1 1 1 1 1 1 1 
1 1 1 1 1 1 1 1 1 
1 1 1 1 1 1 1 1 1 
1 1 1 1 1 1 1 1 1 
1 1 1 1 1 1 1 1 1 
1 1 1 1 1 1 1 1 1 
1 1 1 1 1 1 1 1 1 
1 1 1 1 1 1 1 1 1 
1 1 1 1 1 1 1 1 1 
1 1 1 1 1 1 1 1 1 
1 1 1 1 1 1 1 1 1 
1 1 1 1 1 1 1 1 1 
1 1 1 1 1 1 1 1 1 
1 1 1 1 1 1 1 1 1 
1 1 1 1 1 1 1 1 1 
1 1 1 1 1 1 1 1 1 
1 1 1 1 1 1 1 1 1 
1 1 1 1 1 1 1 1 1 
1 1 1 1 1 1 1 1 1 
1 1 1 1 1 1 1 1 1 
1 1 1 1 1 1 1 1 1 
1 1 1 1 1 1 1 1 1 
1 1 1 1 1 1 1 1 1 
1 1 1 1 1 1 1 1 1 
1 1 1 1 1 1 1 1 1 
1 1 1 1 1 1 1 1 1 
1 1 1 1 1 1 1 1 1 
1 1 1 1 1 1 1 1 1 
1 1 1 1 1 1 1 1 1 
1 1 1 1 1 1 1 1 1 
1 1 1 1 1 1 1 1 1 
1 1 1 1 1 1 1 1 1 
1 1 1 1 1 1 1 1 1 
1 1 1 1 1 1 1 1 1 
1 1 1 1 1 1 1 1 1 
1 1 1 1 1 1 1 1 1 
1 1 1 1 1 1 1 1 1 
1 1 1 1 1 1 1 1 1 
1 1 1 1 1 1 1 1 1 
1 1 1 1 1 1 1 1 1 
1 1 1 1 1 1 1 1 1 
1 1 1 1 1 1 1 1 1 
1 1 1 1 1 1 1 1 1 
1 1 1 1 1 1 1 1 1 
1 1 1 1 1 1 1 1 1 
1 1 1 1 1 1 1 1 1 
1 1 1 1 1 1 1 1 1 
1 1 1 1 1 1 1 1 1 
1 1 1 1 1 1 1 1 1 
1 1 1 1 1 1 1 1 1 
1 1 1 1 1 1 1 1 1 
1 1 1 1 1 1 1 1 1 
1 1 1 1 1 1 1 1 1 
1 1 1 1 1 1 1 1 1 
1 1 1 1 1 1 1 1 1 
1 1 1 1 1 1 1 1 1 
1 1 1 1 1 1 1 1 1 
1 1 1 1 1 1 1 1 1 
1 1 1 1 1 1 1 1 1 
1 1 1 1 1 1 1 1 1 
1 1 1 1 1 1 1 1 1 
1 1 1 1 1 1 1 1 1 
1 1 1 1 1 1 1 1 1 
1 1 1 1 1 1 1 1 1 
1 1 1 1 1 1 1 1 1 
1 1 1 1 1 1 1 1 1 
1 1 1 1 1 1 1 1 1 
1 1 1 1 1 1 1 1 1 
1 1 1 1 1 1 1 1 1 
1 1 1 1 1 1 1 1 1 
1 1 1 1 1 1 1 1 1 
1 1 1 1 1 1 1 1 1 
1 1 1 1 1 1 1 1 1 
1 1 1 1 1 1 1 1 1 
1 1 1 1 1 1 1 1 1 
1 1 1 1 1 1 1 1 1 
1 1 1 1 1 1 1 1 1 
1 1 1 1 1 1 1 1 1 
1 1 1 1 1 1 1 1 1 
1 1 1 1 1 1 1 1 1 
1 1 1 1 1 1 1 1 1 
1 1 1 1 1 1 1 1 1 
1 1 1 1 1 1 1 1 1 
1 1 1 1 1 1 1 1 1 
1 1 1 1 1 1 1 1 1 
1 1 1 1 1 1 1 1 1 
1 1 1 1 1 1 1 1 1 
1 1 1 1 1 1 1 1 1 
1 1 1 1 1 1 1 1 1 
1 1 1 1 1 1 1 1 1 
1 1 1 1 1 1 1 1 1 
1 1 1 1 1 1 1 1 1 
1 1 1 1 1 1 1 1 1 
1 1 1 1 1 1 1 1 1 
1 1 1 1 1 1 1 1 1 
1 1 1 1 1 1 1 1 1 
1 1 1 1 1 1 1 1 1 
1 1 1 1 1 1 1 1 1 
1 1 1 1 1 1 1 1 1 
1 1 1 1 1 1 1 1 1 
1 1 1 1 1 1 1 1 1 
1 1 1 1 1 1 1 1 1 
1 1 1 1 1 1 1 1 1 
1 1 1 1 1 1 1 1 1 
1 1 1 1 1 1 1 1 1 
1 1 1 1 1 1 1 1 1 
1 1 1 1 1 1 1 1 1 
1 1 1 1 1 1 1 1 1 
1 1 1 1 1 1 1 1 1 
1 1 1 1 1 1 1 1 1 
1 1 1 1 1 1 1 1 1 
1 1 1 1 1 1 1 1 1 
1 1 1 1 1 1 1 1 1 
1 1 1 1 1 1 1 1 1 
1 1 1 1 1 1 1 1 1 
1 1 1 1 1 1 1 1 1 
1 1 1 1 1 1 1 1 1 
1 1 1 1 1 1 1 1 1 
1 1 1 1 1 1 1 1 1 
1 1 1 1 1 1 1 1 1 
1 1 1 1 1 1 1 1 1 
1 1 1 1 1 1 1 1 1 
1 1 1 1 1 1 1 1 1 
1 1 1 1 1 1 1 1 1 
1 1 1 1 1 1 1 1 1 
1 1 1 1 1 1 1 1 1 
1 1 1 1 1 1 1 1 1 
1 1 1 1 1 1 1 1 1 
1 1 1 1 1 1 1 1 1 
1 1 1 1 1 1 1 1 1 
1 1 1 1 1 1 1 1 1 
1 1 1 1 1 1 1 1 1 
1 1 1 1 1 1 1 1 1 
1 1 1 1 1 1 1 1 1 
1 1 1 1 1 1 1 1 1 
1 1 1 1 1 1 1 1 1 
1 1 1 1 1 1 1 1 1 
1 1 1 1 1 1 1 1 1 
1 1 1 1 1 1 1 1 1 
1 1 1 1 1 1 1 1 1 
1 1 1 1 1 1 1 1 1 
1 1 1 1 1 1 1 1 1 
1 1 1 1 1 1 1 1 1 
1 1 1 1 1 1 1 1 1 
1 1 1 1 1 1 1 1 1 
1 1 1 1 1 1 1 1 1 
1 1 1 1 1 1 1 1 1 
1 1 1 1 1 1 1 1 1 
1 1 1 1 1 1 1 1 1 
1 1 1 1 1 1 1 1 1 
1 1 1 1 1 1 1 1 1 
1 1 1 1 1 1 1 1 1 
1 1 1 1 1 1 1 1 1 
1 1 1 1 1 1 1 1 1 
1 1 1 1 1 1 1 1 1 
1 1 1 1 1 1 1 1 1 
1 1 1 1 1 1 1 1 1 
1 1 1 1 1 1 1 1 1 
1 1 1 1 1 1 1 1 1 
1 1 1 1 1 1 1 1 1 
1 1 1 1 1 1 1 1 1 
1 1 1 1 1 1 1 1 1 
1 1 1 1 1 1 1 1 1 
1 1 1 1 1 1 1 1 1 
1 1 1 1 1 1 1 1 1 
1 1 1 1 1 1 1 1 1 
1 1 1 1 1 1 1 1 1 
1 1 1 1 1 1 1 1 1 
1 1 1 1 1 1 1 1 1 
1 1 1 1 1 1 1 1 1 
1 1 1 1 1 1 1 1 1 
1 1 1 1 1 1 1 1 1 
1 1 1 1 1 1 1 1 1 
1 1 1 1 1 1 1 1 1 
1 1 1 1 1 1 1 1 1 
1 1 1 1 1 1 1 1 1 
1 1 1 1 1 1 1 1 1 
1 1 1 1 1 1 1 1 1 
1 1 1 1 1 1 1 1 1 
1 1 1 1 1 1 1 1 1 
1 1 1 1 1 1 1 1 1 
1 1 1 1 1 1 1 1 1 
1 1 1 1 1 1 1 1 1 
1 1 1 1 1 1 1 1 1 
1 1 1 1 1 1 1 1 1 
1 1 1 1 1 1 1 1 1 
1 1 1 1 1 1 1 1 1 
1 1 1 1 1 1 1 1 1 
1 1 1 1 1 1 1 1 1 
1 1 1 1 1 1 1 1 1 
1 1 1 1 1 1 1 1 1 
1 1 1 1 1 1 1 1 1 
1 1 1 1 1 1 1 1 1 
1 1 1 1 1 1 1 1 1 
1 1 1 1 1 1 1 1 1 
1 1 1 1 1 1 1 1 1 
1 1 1 1 1 1 1 1 1 
1 1 1 1 1 1 1 1 1 
1 1 1 1 1 1 1 1 1 
1 1 1 1 1 1 1 1 1 
1 1 1 1 1 1 1 1 1 
1 1 1 1 1 1 1 1 1 
1 1 1 1 1 1 1 1 1 
1 1 1 1 1 1 1 1 1 
1 1 1 1 1 1 1 1 1 
1 1 1 1 1 1 1 1 1 
1 1 1 1 1 1 1 1 1 
1 1 1 1 1 1 1 1 1 
1 1 1 1 1 1 1 1 1 
1 1 1 1 1 1 1 1 1 
1 1 1 1 1 1 1 1 1 
1 1 1 1 1 1 1 1 1 
1 1 1 1 1 1 1 1 1 
1 1 1 1 1 1 1 1 1 
1 1 1 1 1 1 1 1 1 
1 1 1 1 1 1 1 1 1 
1 1 1 1 1 1 1 1 1 
1 1 1 1 1 1 1 1 1 
1 1 1 1 1 1 1 1 1 
1 1 1 1 1 1 1 1 1 
1 1 1 1 1 1 1 1 1 
1 1 1 1 1 1 1 1 1 
1 1 1 1 1 1 1 1 1 
1 1 1 1 1 1 1 1 1 
1 1 1 1 1 1 1 1 1 
1 1 1 1 1 1 1 1 1 
1 1 1 1 1 1 1 1 1 
1 1 1 1 1 1 1 1 1 
1 1 1 1 1 1 1 1 1 
1 1 1 1 1 1 1 1 1 
1 1 1 1 1 1 1 1 1 
1 1 1 1 1 1 1 1 1 
1 1 1 1 1 1 1 1 1 
1 1 1 1 1 1 1 1 1 
1 1 1 1 1 1 1 1 1 
1 1 1 1 1 1 1 1 1 
1 1 1 1 1 1 1 1 1 
1 1 1 1 1 1 1 1 1 
1 1 1 1 1 1 1 1 1 
1 1 1 1 1 1 1 1 1 
1 1 1 1 1 1 1 1 1 
1 1 1 1 1 1 1 1 1 
1 1 1 1 1 1 1 1 1 
1 1 1 1 1 1 1 1 1 
1 1 1 1 1 1 1 1 1 
1 1 1 1 1 1 1 1 1 
1 1 1 1 1 1 1 1 1 
1 1 1 1 1 1 1 1 1 
1 1 1 1 1 1 1 1 1 
1 1 1 1 1 1 1 1 1 
1 1 1 1 1 1 1 1 1 
1 1 1 1 1 1 1 1 1 
1 1 1 1 1 1 1 1 1 
1 1 1 1 1 1 1 1 1 
1 1 1 1 1 1 1 1 1 
1 1 1 1 1 1 1 1 1 
1 1 1 1 1 1 1 1 1 
1 1 1 1 1 1 1 1 1 
1 1 1 1 1 1 1 1 1 
1 1 1 1 1 1 1 1 1 
1 1 1 1 1 1 1 1 1 
1 1 1 1 1 1 1 1 1 
1 1 1 1 1 1 1 1 1 
1 1 1 1 1 1 1 1 1 
1 1 1 1 1 1 1 1 1 
1 1 1 1 1 1 1 1 1 
1 1 1 1 1 1 1 1 1 
1 1 1 1 1 1 1 1 1 
1 1 1 1 1 1 1 1 1 
1 1 1 1 1 1 1 1 1 
1 1 1 1 1 1 1 1 1 
1 1 1 1 1 1 1 1 1 
1 1 1 1 1 1 1 1 1 
1 1 1 1 1 1 1 1 1 
1 1 1 1 1 1 1 1 1 
1 1 1 1 1 1 1 1 1 
1 1 1 1 1 1 1 1 1 
1 1 1 1 1 1 1 1 1 
1 1 1 1 1 1 1 1 1 
1 1 1 1 1 1 1 1 1 
1 1 1 1 1 1 1 1 1 
1 1 1 1 1 1 1 1 1 
1 1 1 1 1 1 1 1 1 
1 1 1 1 1 1 1 1 1 
1 1 1 1 1 1 1 1 1 
1 1 1 1 1 1 1 1 1 
1 1 1 1 1 1 1 1 1 
1 1 1 1 1 1 1 1 1 
1 1 1 1 1 1 1 1 1 
1 1 1 1 1 1 1 1 1 
1 1 1 1 1 1 1 1 1 
1 1 1 1 1 1 1 1 1 
1 1 1 1 1 1 1 1 1 
1 1 1 1 1 1 1 1 1 
1 1 1 1 1 1 1 1 1 
1 1 1 1 1 1 1 1 1 
1 1 1 1 1 1 1 1 1 
1 1 1 1 1 1 1 1 1 
1 1 1 1 1 1 1 1 1 
1 1 1 1 1 1 1 1 1 
1 1 1 1 1 1 1 1 1 
1 1 1 1 1 1 1 1 1 
1 1 1 1 1 1 1 1 1 
1 1 1 1 1 1 1 1 1 
1 1 1 1 1 1 1 1 1 
1 1 1 1 1 1 1 1 1 
1 1 1 1 1 1 1 1 1 
1 1 1 1 1 1 1 1 1 
1 1 1 1 1 1 1 1 1 
1 1 1 1 1 1 1 1 1 
1 1 1 1 1 1 1 1 1 
1 1 1 1 1 1 1 1 1 
1 1 1 1 1 1 1 1 1 
1 1 1 1 1 1 1 1 1 
1 1 1 1 1 1 1 1 1 
1 1 1 1 1 1 1 1 1 
1 1 1 1 1 1 1 1 1 
1 1 1 1 1 1 1 1 1 
1 1 1 1 1 1 1 1 1 
1 1 1 1 1 1 1 1 1 
1 1 1 1 1 1 1 1 1 
1 1 1 1 1 1 1 1 1 
1 1 1 1 1 1 1 1 1 
1 1 1 1 1 1 1 1 1 
1 1 1 1 1 1 1 1 1 
1 1 1 1 1 1 1 1 1 
1 1 1 1 1 1 1 1 1 
1 1 1 1 1 1 1 1 1 
1 1 1 1 1 1 1 1 1 
1 1 1 1 1 1 1 1 1 
1 1 1 1 1 1 1 1 1 
1 1 1 1 1 1 1 1 1 
1 1 1 1 1 1 1 1 1 
1 1 1 1 1 1 1 1 1 
1 1 1 1 1 1 1 1 1 
1 1 1 1 1 1 1 1 1 
1 1 1 1 1 1 1 1 1 
1 1 1 1 1 1 1 1 1 
1 1 1 1 1 1 1 1 1 
1 1 1 1 1 1 1 1 1 
1 1 1 1 1 1 1 1 1 
1 1 1 1 1 1 1 1 1 
1 1 1 1 1 1 1 1 1 
1 1 1 1 1 1 1 1 1 
1 1 1 1 1 1 1 1 1 
1 1 1 1 1 1 1 1 1 
1 1 1 1 1 1 1 1 1 
1 1 1 1 1 1 1 1 1 
1 1 1 1 1 1 1 1 1 
1 1 1 1 1 1 1 1 1 
1 1 1 1 1 1 1 1 1 
1 1 1 1 1 1 1 1 1 
1 1 1 1 1 1 1 1 1 
1 1 1 1 1 1 1 1 1 
1 1 1 1 1 1 1 1 1 
1 1 1 1 1 1 1 1 1 
1 1 1 1 1 1 1 1 1 
1 1 1 1 1 1 1 1 1 
1 1 1 1 1 1 1 1 1 
1 1 1 1 1 1 1 1 1 
1 1 1 1 1 1 1 1 1 
1 1 1 1 1 1 1 1 1 
1 1 1 1 1 1 1 1 1 
1 1 1 1 1 1 1 1 1 
1 1 1 1 1 1 1 1 1 
1 1 1 1 1 1 1 1 1 
1 1 1 1 1 1 1 1 1 
1 1 1 1 1 1 1 1 1 
1 1 1 1 1 1 1 1 1 
1 1 1 1 1 1 1 1 1 
1 1 1 1 1 1 1 1 1 
1 1 1 1 1 1 1 1 1 
1 1 1 1 1 1 1 1 1 
1 1 1 1 1 1 1 1 1 
1 1 1 1 1 1 1 1 1 
1 1 1 1 1 1 1 1 1 
1 1 1 1 1 1 1 1 1 
1 1 1 1 1 1 1 1 1 
1 1 1 1 1 1 1 1 1 
1 1 1 1 1 1 1 1 1 
1 1 1 1 1 1 1 1 1 
1 1 1 1 1 1 1 1 1 
1 1 1 1 1 1 1 1 1 
1 1 1 1 1 1 1 1 1 
1 1 1 1 1 1 1 1 1 
1 1 1 1 1 1 1 1 1 
1 1 1 1 1 1 1 1 1 
1 1 1 1 1 1 1 1 1 
1 1 1 1 1 1 1 1 1 
1 1 1 1 1 1 1 1 1 
1 1 1 1 1 1 1 1 1 
1 1 1 1 1 1 1 1 1 
1 1 1 1 1 1 1 1 1 
1 1 1 1 1 1 1 1 1 
1 1 1 1 1 1 1 1 1 
1 1 1 1 1 1 1 1 1 
1 1 1 1 1 1 1 1 1 
1 1 1 1 1 1 1 1 1 
1 1 1 1 1 1 1 1 1 
1 1 1 1 1 1 1 1 1 
1 1 1 1 1 1 1 1 1 
1 1 1 1 1 1 1 1 1 
1 1 1 1 1 1 1 1 1 
1 1 1 1 1 1 1 1 1 
1 1 1 1 1 1 1 1 1 
1 1 1 1 1 1 1 1 1 
1 1 1 1 1 1 1 1 1 
1 1 1 1 1 1 1 1 1 
1 1 1 1 1 1 1 1 1 
1 1 1 1 1 1 1 1 1 
1 1 1 1 1 1 1 1 1 
1 1 1 1 1 1 1 1 1 
1 1 1 1 1 1 1 1 1 
1 1 1 1 1 1 1 1 1 
1 1 1 1 1 1 1 1 1 
1 1 1 1 1 1 1 1 1 
1 1 1 1 1 1 1 1 1 
1 1 1 1 1 1 1 1 1 
1 1 1 1 1 1 1 1 1 
1 1 1 1 1 1 1 1 1 
1 1 1 1 1 1 1 1 1 
1 1 1 1 1 1 1 1 1 
1 1 1 1 1 1 1 1 1 
1 1 1 1 1 1 1 1 1 
1 1 1 1 1 1 1 1 1 
1 1 1 1 1 1 1 1 1 
1 1 1 1 1 1 1 1 1 
1 1 1 1 1 1 1 1 1 
1 1 1 1 1 1 1 1 1 
1 1 1 1 1 1 1 1 1 
1 1 1 1 1 1 1 1 1 
1 1 1 1 1 1 1 1 1 
1 1 1 1 1 1 1 1 1 
1 1 1 1 1 1 1 1 1 
1 1 1 1 1 1 1 1 1 
1 1 1 1 1 1 1 1 1 
1 1 1 1 1 1 1 1 1 
1 1 1 1 1 1 1 1 1 
1 1 1 1 1 1 1 1 1 
1 1 1 1 1 1 1 1 1 
1 1 1 1 1 1 1 1 1 
1 1 1 1 1 1 1 1 1 
1 1 1 1 1 1 1 1 1 
1 1 1 1 1 1 1 1 1 
1 1 1 1 1 1 1 1 1 
1 1 1 1 1 1 1 1 1 
1 1 1 1 1 1 1 1 1 
1 1 1 1 1 1 1 1 1 
1 1 1 1 1 1 1 1 1 
1 1 1 1 1 1 1 1 1 
1 1 1 1 1 1 1 1 1 
1 1 1 1 1 1 1 1 1 
1 1 1 1 1 1 1 1 1 
1 1 1 1 1 1 1 1 1 
1 1 1 1 1 1 1 1 1 
1 1 1 1 1 1 1 1 1 
1 1 1 1 1 1 1 1 1 
1 1 1 1 1 1 1 1 1 
1 1 1 1 1 1 1 1 1 
1 1 1 1 1 1 1 1 1 
1 1 1 1 1 1 1 1 1 
1 1 1 1 1 1 1 1 1 
1 1 1 1 1 1 1 1 1 
1 1 1 1 1 1 1 1 1 
1 1 1 1 1 1 1 1 1 
1 1 1 1 1 1 1 1 1 
1 1 1 1 1 1 1 1 1 
1 1 1 1 1 1 1 1 1 
1 1 1 1 1 1 1 1 1 
1 1 1 1 1 1 1 1 1 
1 1 1 1 1 1 1 1 1 
1 1 1 1 1 1 1 1 1 
1 1 1 1 1 1 1 1 1 
1 1 1 1 1 1 1 1 1 
1 1 1 1 1 1 1 1 1 
1 1 1 1 1 1 1 1 1 
1 1 1 1 1 1 1 1 1 
1 1 1 1 1 1 1 1 1 
1 1 1 1 1 1 1 1 1 
1 1 1 1 1 1 1 1 1 
1 1 1 1 1 1 1 1 1 
1 1 1 1 1 1 1 1 1 
1 1 1 1 1 1 1 1 1 
1 1 1 1 1 1 1 1 1 
1 1 1 1 1 1 1 1 1 
1 1 1 1 1 1 1 1 1 
1 1 1 1 1 1 1 1 1 
1 1 1 1 1 1 1 1 1 
1 1 1 1 1 1 1 1 1 
1 1 1 1 1 1 1 1 1 
1 1 1 1 1 1 1 1 1 
1 1 1 1 1 1 1 1 1 
1 1 1 1 1 1 1 1 1 
1 1 1 1 1 1 1 1 1 
1 1 1 1 1 1 1 1 1 
1 1 1 1 1 1 1 1 1 
1 1 1 1 1 1 1 1 1 
1 1 1 1 1 1 1 1 1 
1 1 1 1 1 1 1 1 1 
1 1 1 1 1 1 1 1 1 
1 1 1 1 1 1 1 1 1 
1 1 1 1 1 1 1 1 1 
1 1 1 1 1 1 1 1 1 
1 1 1 1 1 1 1 1 1 
1 1 1 1 1 1 1 1 1 
1 1 1 1 1 1 1 1 1 
1 1 1 1 1 1 1 1 1 
1 1 1 1 1 1 1 1 1 
1 1 1 1 1 1 1 1 1 
1 1 1 1 1 1 1 1 1 
1 1 1 1 1 1 1 1 1 
1 1 1 1 1 1 1 1 1 
1 1 1 1 1 1 1 1 1 
1 1 1 1 1 1 1 1 1 
1 1 1 1 1 1 1 1 1 
1 1 1 1 1 1 1 1 1 
1 1 1 1 1 1 1 1 1 
1 1 1 1 1 1 1 1 1 
1 1 1 1 1 1 1 1 1 
1 1 1 1 1 1 1 1 1 
1 1 1 1 1 1 1 1 1 
1 1 1 1 1 1 1 1 1 
1 1 1 1 1 1 1 1 1 
1 1 1 1 1 1 1 1 1 
1 1 1 1 1 1 1 1 1 
1 1 1 1 1 1 1 1 1 
1 1 1 1 1 1 1 1 1 
1 1 1 1 1 1 1 1 1 
1 1 1 1 1 1 1 1 1 
1 1 1 1 1 1 1 1 1 
1 1 1 1 1 1 1 1 1 
1 1 1 1 1 1 1 1 1 
1 1 1 1 1 1 1 1 1 
1 1 1 1 1 1 1 1 1 
1 1 1 1 1 1 1 1 1 
1 1 1 1 1 1 1 1 1 
1 1 1 1 1 1 1 1 1 
1 1 1 1 1 1 1 1 1 
1 1 1 1 1 1 1 1 1 
1 1 1 1 1 1 1 1 1 
1 1 1 1 1 1 1 1 1 
1 1 1 1 1 1 1 1 1 
1 1 1 1 1 1 1 1 1 
1 1 1 1 1 1 1 1 1 
1 1 1 1 1 1 1 1 1 
1 1 1 1 1 1 1 1 1 
1 1 1 1 1 1 1 1 1 
1 1 1 1 1 1 1 1 1 
1 1 1 1 1 1 1 1 1 
1 1 1 1 1 1 1 1 1 
1 1 1 1 1 1 1 1 1 
1 1 1 1 1 1 1 1 1 
1 1 1 1 1 1 1 1 1 
1 1 1 1 1 1 1 1 1 
1 1 1 1 1 1 1 1 1 
1 1 1 1 1 1 1 1 1 
1 1 1 1 1 1 1 1 1 
1 1 1 1 1 1 1 1 1 
1 1 1 1 1 1 1 1 1 
1 1 1 1 1 1 1 1 1 
1 1 1 1 1 1 1 1 1 
1 1 1 1 1 1 1 1 1 
1 1 1 1 1 1 1 1 1 
1 1 1 1 1 1 1 1 1 
1 1 1 1 1 1 1 1 1 
1 1 1 1 1 1 1 1 1 
1 1 1 1 1 1 1 1 1 
1 1 1 1 1 1 1 1 1 
1 1 1 1 1 1 1 1 1 
1 1 1 1 1 1 1 1 1 
1 1 1 1 1 1 1 1 1 
1 1 1 1 1 1 1 1 1 
1 1 1 1 1 1 1 1 1 
1 1 1 1 1 1 1 1 1 
1 1 1 1 1 1 1 1 1 
1 1 1 1 1 1 1 1 1 
1 1 1 1 1 1 1 1 1 
1 1 1 1 1 1 1 1 1 
1 1 1 1 1 1 1 1 1 
1 1 1 1 1 1 1 1 1 
1 1 1 1 1 1 1 1 1 
1 1 1 1 1 1 1 1 1 
1 1 1 1 1 1 1 1 1 
1 1 1 1 1 1 1 1 1 
1 1 1 1 1 1 1 1 1 
1 1 1 1 1 1 1 1 1 
1 1 1 1 1 1 1 1 1 
1 1 1 1 1 1 1 1 1 
1 1 1 1 1 1 1 1 1 
1 1 1 1 1 1 1 1 1 
1 1 1 1 1 1 1 1 1 
1 1 1 1 1 1 1 1 1 
1 1 1 1 1 1 1 1 1 
1 1 1 1 1 1 1 1 1 
1 1 1 1 1 1 1 1 1 
1 1 1 1 1 1 1 1 1 
1 1 1 1 1 1 1 1 1 
1 1 1 1 1 1 1 1 1 
1 1 1 1 1 1 1 1 1 
1 1 1 1 1 1 1 1 1 
1 1 1 1 1 1 1 1 1 
1 1 1 1 1 1 1 1 1 
1 1 1 1 1 1 1 1 1 
1 1 1 1 1 1 1 1 1 
1 1 1 1 1 1 1 1 1 
1 1 1 1 1 1 1 1 1 
1 1 1 1 1 1 1 1 1 
1 1 1 1 1 1 1 1 1 
1 1 1 1 1 1 1 1 1 
1 1 1 1 1 1 1 1 1 
1 1 1 1 1 1 1 1 1 
1 1 1 1 1 1 1 1 1 
1 1 1 1 1 1 1 1 1 
1 1 1 1 1 1 1 1 1 
1 1 1 1 1 1 1 1 1 
1 1 1 1 1 1 1 1 1 
1 1 1 1 1 1 1 1 1 
1 1 1 1 1 1 1 1 1 
1 1 1 1 1 1 1 1 1 
1 1 1 1 1 1 1 1 1 
1 1 1 1 1 1 1 1 1 
1 1 1 1 1 1 1 1 1 
1 1 1 1 1 1 1 1 1 
1 1 1 1 1 1 1 1 1 
1 1 1 1 1 1 1 1 1 
1 1 1 1 1 1 1 1 1 
1 1 1 1 1 1 1 1 1 
1 1 1 1 1 1 1 1 1 
1 1 1 1 1 1 1 1 1 
1 1 1 1 1 1 1 1 1 
1 1 1 1 1 1 1 1 1 
1 1 1 1 1 1 1 1 1 
1 1 1 1 1 1 1 1 1 
1 1 1 1 1 1 1 1 1 
1 1 1 1 1 1 1 1 1 
1 1 1 1 1 1 1 1 1 
1 1 1 1 1 1 1 1 1 
1 1 1 1 1 1 1 1 1 
1 1 1 1 1 1 1 1 1 
1 1 1 1 1 1 1 1 1 
1 1 1 1 1 1 1 1 1 
1 1 1 1 1 1 1 1 1 
1 1 1 1 1 1 1 1 1 
1 1 1 1 1 1 1 1 1 
1 1 1 1 1 1 1 1 1 
1 1 1 1 1 1 1 1 1 
1 1 1 1 1 1 1 1 1 
1 1 1 1 1 1 1 1 1 
1 1 1 1 1 1 1 1 1 
1 1 1 1 1 1 1 1 1 
1 1 1 1 1 1 1 1 1 
1 1 1 1 1 1 1 1 1 
1 1 1 1 1 1 1 1 1 
1 1 1 1 1 1 1 1 1 
1 1 1 1 1 1 1 1 1 
1 1 1 1 1 1 1 1 1 
1 1 1 1 1 1 1 1 1 
1 1 1 1 1 1 1 1 1 
1 1 1 1 1 1 1 1 1 
1 1 1 1 1 1 1 1 1 
1 1 1 1 1 1 1 1 1 
1 1 1 1 1 1 1 1 1 
1 1 1 1 1 1 1 1 1 
1 1 1 1 1 1 1 1 1 
1 1 1 1 1 1 1 1 1 
1 1 1 1 1 1 1 1 1 
1 1 1 
NORMALS normals float
0 0 -1 0 -0.691905 -0.721988 -0.999056 0 -0.0434372 
0.691905 0 -0.721988 0 0.691905 -0.721988 -0.0415945 -0.0415945 -0.998268 
-0.0415945 -0.998268 -0.0415945 -0.57735 -0.57735 -0.57735 0.0416305 0 -0.999133 
0.0433963 -0.998115 -0.0433963 0.999133 0 -0.0416305 -0.0415945 -0.0415945 -0.998268 
-0.57735 -0.57735 -0.57735 -0.57735 -0.57735 -0.57735 0.0415945 0.0415945 -0.998268 
0.7068 0.7068 -0.02945 0.721662 0.691593 -0.0300692 -0.0415945 -0.0415945 -0.998268 
-0.57735 -0.57735 -0.57735 -0.7068 -0.02945 -0.7068 0.0416305 0 -0.999133 
0.721662 0.691593 -0.0300692 0.7068 0.7068 -0.02945 -0.0416305 0 -0.999133 
-0.707107 0 -0.707107 0.0416305 0 -0.999133 0.999133 0 -0.0416305 
-0.0416305 0 -0.999133 -0.707107 0 -0.707107 0.0416305 0 -0.999133 
0.999133 0 -0.0416305 -0.0415945 0.0415945 -0.998268 -0.7068 0.02945 -0.7068 
0.0415945 0.0415945 -0.998268 0.998268 0.0415945 -0.0415945 -0.0415945 0.998268 -0.0415945 
0.0415945 0.998268 -0.0415945 -0.0415945 -0.0415945 -0.998268 -0.02945 -0.7068 -0.7068 
-0.7068 -0.02945 -0.7068 0.0415945 -0.0415945 -0.998268 0.02945 -0.7068 -0.7068 
0.998268 -0.0415945 -0.0415945 -0.0416305 0 -0.999133 -0.707107 0 -0.707107 
0.0416305 0 -0.999133 0.999133 0 -0.0416305 -0.0300692 -0.691593 -0.721662 
-0.707107 0 -0.707107 0.0416305 0 -0.999133 0.999133 0 -0.0416305 
-0.721988 0 -0.691905 0.707107 0 -0.707107 0.999133 0 -0.0416305 
-0.0300692 0.691593 -0.721662 -0.707107 0 -0.707107 0.0415945 0.0415945 -0.998268 
0.998268 0.0415945 -0.0415945 0 0.0416305 -0.999133 -0.691593 0.0300692 -0.721662 
0.691593 0.721662 -0.0300692 0.7068 0.7068 -0.02945 0 0.999133 -0.0416305 
0 -0.0416305 -0.999133 0 -0.707107 -0.707107 -0.691593 -0.0300692 -0.721662 
0.691593 -0.721662 -0.0300692 -0.585366 -0.560976 -0.585366 -0.585366 -0.560976 -0.585366 
0.691905 -0.721988 0 0.0434372 -0.999056 0 1 0 0 
-0.0415945 -0.0415945 -0.998268 -0.02945 -0.7068 -0.7068 -0.7068 -0.02945 -0.7068 
-0.560976 -0.585366 -0.585366 -0.560976 -0.585366 -0.585366 0.707107 0.707107 0 
0.721988 0.691905 0 -0.707107 0 -0.707107 -0.707107 0 -0.707107 
0.721988 0.691905 0 0.707107 0.707107 0 -0.707107 0 -0.707107 
-0.707107 0 -0.707107 1 0 0 -0.707107 0 -0.707107 
-0.707107 0 -0.707107 1 0 0 -0.7068 0.02945 -0.7068 
-0.7068 0.02945 -0.7068 0.999133 0.0416305 0 -0.02945 0.7068 -0.7068 
0 0.721988 -0.691905 0.0300692 0.721662 -0.691593 -0.0415945 -0.0415945 -0.998268 
-0.02945 -0.7068 -0.7068 -0.7068 -0.02945 -0.7068 0 -0.707107 -0.707107 
0 -0.707107 -0.707107 0.02945 -0.7068 -0.7068 0.02945 -0.7068 -0.7068 
0.998268 -0.0415945 -0.0415945 -0.707107 0 -0.707107 -0.707107 0 -0.707107 
1 0 0 -0.707107 0 -0.707107 -0.707107 0 -0.707107 
1 0 0 -0.707107 0 -0.707107 -0.707107 0 -0.707107 
1 0 0 -0.707107 0 -0.707107 -0.707107 0 -0.707107 
1 0 0 -0.707107 0 -0.707107 -0.707107 0 -0.707107 
0.999133 0.0416305 0 -0.7068 0.02945 -0.7068 -0.7068 0.02945 -0.7068 
0.707107 0.707107 0 0.707107 0.707107 0 -0.02945 0.7068 -0.7068 
0.0416305 0.999133 0 -0.0415945 -0.0415945 -0.998268 -0.02945 -0.7068 -0.7068 
-0.7068 -0.02945 -0.7068 0.0416305 0 -0.999133 0.0300692 -0.691593 -0.721662 
0.707107 0 -0.707107 0 0 -1 -0.691905 0 -0.721988 
0.568986 0.568986 -0.593725 0.585366 0.560976 -0.585366 0 0.0416305 -0.999133 
-0.691593 0.0300692 -0.721662 0.691593 0.0300692 -0.721662 0 0.707107 -0.707107 
-0.0415945 -0.0415945 -0.998268 -0.02945 -0.7068 -0.7068 -0.7068 -0.02945 -0.7068 
0 0 -1 0 -0.691905 -0.721988 0 -0.0416305 -0.999133 
0 -0.707107 -0.707107 0.0416305 0 -0.999133 0.0300692 -0.691593 -0.721662 
0.707107 0 -0.707107 0 0 -1 -0.691905 0 -0.721988 
0 0 -1 0 0 -1 0 0 -1 
0 0 -1 0.691905 0 -0.721988 0.707107 0 -0.707107 
-0.0415945 0.0415945 -0.998268 -0.7068 0.02945 -0.7068 0 0 -1 
0 0 -1 0 0.0416305 -0.999133 0.707107 0 -0.707107 