# vtk DataFile Version 3.0
vtk output
ASCII
DATASET POLYDATA
POINTS 5548 float
76 141 45.2 76 140.2 46 75.2 141 46 
76.8 141 46 75 142 45.2 75 141.2 46 
74.2 142 46 76 142 45.2 77 141.2 46 
77 142 45.2 78 142 45.2 78 141.2 46 
78.8 142 46 75 143 45.2 74.2 143 46 
76 143 45.2 77 143 45.2 78 143 45.2 
78.8 143 46 75 144 45.2 74.2 144 46 
76 144 45.2 77 144 45.2 78 144 45.2 
79 143.2 46 79 144 45.2 80 144 45.2 
80 143.2 46 80.8 144 46 75 145 45.2 
74.2 145 46 76 145 45.2 77 145 45.2 
78 145 45.2 79 145 45.2 80 145 45.2 
80.8 145 46 75 146 45.2 74.2 146 46 
76 146 45.2 77 146 45.2 78 146 45.2 
79 146 45.2 80 146 45.2 80.8 146 46 
75 147 45.2 74.2 147 46 76 147 45.2 
77 147 45.2 78 147 45.2 79 147 45.2 
80 147 45.2 80.8 147 46 75 148 45.2 
74.2 148 46 76 148 45.2 77 148 45.2 
78 148 45.2 79 148 45.2 80 148 45.2 
80.8 148 46 75 149 45.2 74.2 149 46 
76 149 45.2 77 149 45.2 78 149 45.2 
79 149 45.2 80 149 45.2 80.8 149 46 
75 150 45.2 74.2 150 46 76 150 45.2 
77 150 45.2 78 150 45.2 79 150 45.2 
80 150 45.2 80.8 150 46 74 151 45.2 
74 150.2 46 73.2 151 46 75 151 45.2 
76 151 45.2 77 151 45.2 78 151 45.2 
79 151 45.2 80 151 45.2 80.8 151 46 
73 152 45.2 73 151.2 46 72.2 152 46 
74 152 45.2 75 152 45.2 76 152 45.2 
77 152 45.2 78 152 45.2 79 152 45.2 
80 152 45.2 81 151.2 46 81 152 45.2 
82 152 45.2 82 151.2 46 82.8 152 46 
72 153 45.2 72 152.2 46 71.2 153 46 
73 153 45.2 74 153 45.2 75 153 45.2 
76 153 45.2 77 153 45.2 78 153 45.2 
79 153 45.2 80 153 45.2 81 153 45.2 
82 153 45.2 82.8 153 46 72 153.8 46 
72.2 154 46 73 154 45.2 74 154 45.2 
75 154 45.2 76 154 45.2 77 154 45.2 
78 154 45.2 79 154 45.2 80 154 45.2 
81 154 45.2 82 154 45.2 82.8 154 46 
73 155 45.2 72.2 155 46 74 155 45.2 
75 155 45.2 76 155 45.2 77 155 45.2 
78 155 45.2 79 155 45.2 80 155 45.2 
81 155 45.2 82 155 45.2 82.8 155 46 
73 156 45.2 72.2 156 46 74 156 45.2 
75 156 45.2 76 156 45.2 77 156 45.2 
78 156 45.2 79 156 45.2 80 156 45.2 
81 156 45.2 82 156 45.2 82.8 156 46 
73 157 45.2 72.2 157 46 74 157 45.2 
75 157 45.2 76 157 45.2 77 157 45.2 
78 157 45.2 79 157 45.2 80 157 45.2 
81 157 45.2 82 157 45.2 82.8 157 46 
73 158 45.2 72.2 158 46 74 158 45.2 
75 158 45.2 76 158 45.2 77 158 45.2 
78 158 45.2 79 158 45.2 80 158 45.2 
81 158 45.2 82 158 45.2 82.8 158 46 
73 159 45.2 72.2 159 46 74 159 45.2 
75 159 45.2 76 159 45.2 77 159 45.2 
78 159 45.2 79 159 45.2 80 159 45.2 
81 159 45.2 82 159 45.2 82.8 159 46 
73 160 45.2 72.2 160 46 74 160 45.2 
75 160 45.2 76 160 45.2 77 160 45.2 
78 160 45.2 79 160 45.2 80 160 45.2 
81 160 45.2 82 160 45.2 82.8 160 46 
73 161 45.2 72.2 161 46 74 161 45.2 
75 161 45.2 76 161 45.2 77 161 45.2 
78 161 45.2 79 161 45.2 80 161 45.2 
81 161 45.2 82 161 45.2 82.8 161 46 
73 162 45.2 72.2 162 46 74 162 45.2 
75 162 45.2 76 162 45.2 77 162 45.2 
78 162 45.2 79 162 45.2 80 162 45.2 
81 162 45.2 82 162 45.2 82.8 162 46 
73 163 45.2 72.2 163 46 74 163 45.2 
75 163 45.2 76 163 45.2 77 163 45.2 
78 163 45.2 79 163 45.2 80 163 45.2 
81 163 45.2 82 163 45.2 82.8 163 46 
73 164 45.2 72.2 164 46 74 164 45.2 
75 164 45.2 76 164 45.2 77 164 45.2 
78 164 45.2 79 164 45.2 80 164 45.2 
81 164 45.2 82 164 45.2 82.8 164 46 
73 165 45.2 72.2 165 46 74 165 45.2 
75 165 45.2 76 165 45.2 77 165 45.2 
78 165 45.2 79 165 45.2 80 165 45.2 
81 165 45.2 82 165 45.2 82.8 165 46 
73 165.8 46 74 165.8 46 74.2 166 46 
75 166 45.2 76 166 45.2 77 166 45.2 
78 166 45.2 79 166 45.2 80 166 45.2 
81 166 45.2 82 166 45.2 82.8 166 46 
75 167 45.2 74.2 167 46 76 167 45.2 
77 167 45.2 78 167 45.2 79 167 45.2 
80 167 45.2 81 167 45.2 82 167 45.2 
82.8 167 46 75 168 45.2 74.2 168 46 
76 168 45.2 77 168 45.2 78 168 45.2 
79 168 45.2 80 168 45.2 81 168 45.2 
82 168 45.2 82.8 168 46 75 169 45.2 
74.2 169 46 76 169 45.2 77 169 45.2 
78 169 45.2 79 169 45.2 80 169 45.2 
81 169 45.2 82 169 45.2 82.8 169 46 
75 169.8 46 76 169.8 46 77 169.8 46 
78 169.8 46 78.2 170 46 79 170 45.2 
80 170 45.2 81 170 45.2 82 170 45.2 
82.8 170 46 79 171 45.2 78.2 171 46 
80 171 45.2 81 171 45.2 81.8 171 46 
82 170.8 46 79 171.8 46 80 171.8 46 
81 171.8 46 76 140.2 47 75.2 141 47 
77 141 46.2 77 140.2 47 78 141 46.2 
78 140.2 47 78.8 141 47 75 141.2 47 
74.2 142 47 78.8 142 47 74.2 143 47 
79 142.2 47 79 143 46.2 79.8 143 47 
74.2 144 47 80 143.2 47 80.8 144 47 
74.2 145 47 80.8 145 47 74.2 146 47 
80.8 146 47 74.2 147 47 80.8 147 47 
74.2 148 47 80.8 148 47 74.2 149 47 
80.8 149 47 74.2 150 47 80.8 150 47 
74 150.2 47 73.2 151 47 80.8 151 47 
73 151.2 47 72.2 152 47 81 151.2 47 
82 152 46.8 81.8 152 47 72 152.2 47 
71.2 153 47 82 153 46.8 81.8 153 47 
72 154 46.2 71.2 154 47 82 154 46.8 
81.8 154 47 72 155 46.2 71.2 155 47 
82 155 46.8 81.8 155 47 72 156 46.2 
71.2 156 47 82 155.2 47 82.8 156 47 
72 157 46.2 71.2 157 47 82.8 157 47 
72 158 46.2 71.2 158 47 82.8 158 47 
72 159 46.2 71.2 159 47 82.8 159 47 
72 160 46.2 71.2 160 47 82.8 160 47 
72 161 46.2 71.2 161 47 82.8 161 47 
72 162 46.2 71.2 162 47 82.8 162 47 
72 163 46.2 71.2 163 47 82.8 163 47 
72 164 46.2 71.2 164 47 82.8 164 47 
72 165 46.2 71.2 165 47 82.8 165 47 
72 165.8 47 73 165.8 47 74 166 46.2 
73.2 166 47 82.8 166 47 74 167 46.2 
73.2 167 47 82.8 167 47 74 168 46.2 
73.2 168 47 82.8 168 47 74 169 46.2 
73.2 169 47 82.8 169 47 74 169.8 47 
75 169.8 47 76 169.8 47 77 169.8 47 
78 170 46.2 77.2 170 47 82.8 170 47 
78 171 46.2 77.2 171 47 81.8 171 47 
82 170.8 47 78 171.8 47 79 171.8 47 
80 171.8 47 81 171.8 47 77 138 47.2 
77 137.2 48 76.2 138 48 78 138 47.2 
78 137.2 48 78.8 138 48 77 139 47.2 
76.2 139 48 78 139 47.2 78.8 139 48 
77 140 47.2 76.2 140 48 78 140 47.2 
79 139.2 48 79 140 47.2 80 140 47.2 
80 139.2 48 80.8 140 48 76 140.2 48 
75.2 141 48 79 141 47.2 80 141 47.2 
80.8 141 48 75 141.2 48 74.2 142 48 
79 142 47.2 80 142 47.2 80.8 142 48 
74.2 143 48 80 143 47.2 80.8 143 48 
74.2 144 48 80.8 144 48 74.2 145 48 
80.8 145 48 74.2 146 48 80.8 146 48 
74.2 147 48 80.8 147 48 74.2 148 48 
80.8 148 48 74.2 149 48 80.8 149 48 
74.2 150 48 80.8 150 48 74 150.2 48 
73.2 151 48 80.8 151 48 73 151.2 48 
72.2 152 48 81 152 47.8 80.8 152 48 
72 152.2 48 71.2 153 48 81 153 47.8 
80.8 153 48 69 154 47.2 69 153.2 48 
68.2 154 48 70 154 47.2 70 153.2 48 
71 154 47.2 71 153.2 48 81 154 47.8 
80.8 154 48 68 155 47.2 68 154.2 48 
67.2 155 48 69 155 47.2 70 155 47.2 
71 155 47.2 81 155 47.8 80.8 155 48 
67 156 47.2 67 155.2 48 66.2 156 48 
68 156 47.2 69 156 47.2 70 156 47.2 
71 156 47.2 81 155.2 48 82 155.2 48 
82.8 156 48 67 157 47.2 66.2 157 48 
68 157 47.2 69 157 47.2 70 157 47.2 
71 157 47.2 82.8 157 48 67 157.8 48 
68 157.8 48 68.2 158 48 69 158 47.2 
70 158 47.2 71 158 47.2 82.8 158 48 
69 159 47.2 68.2 159 48 70 159 47.2 
71 159 47.2 82.8 159 48 69 160 47.2 
68.2 160 48 70 160 47.2 71 160 47.2 
82.8 160 48 69 161 47.2 68.2 161 48 
70 161 47.2 71 161 47.2 82.8 161 48 
69 162 47.2 68.2 162 48 70 162 47.2 
71 162 47.2 82.8 162 48 69 163 47.2 
68.2 163 48 70 163 47.2 71 163 47.2 
82.8 163 48 69 163.8 48 70 163.8 48 
70.2 164 48 71 164 47.2 82.8 164 48 
71 165 47.2 70.2 165 48 82.8 165 48 
71 166 47.2 70.2 166 48 72 166 47.2 
73 166 47.2 82.8 166 48 71 167 47.2 
70.2 167 48 72 167 47.2 73 167 47.2 
82.8 167 48 71 168 47.2 70.2 168 48 
72 168 47.2 73 168 47.2 82.8 168 48 
71 169 47.2 70.2 169 48 72 169 47.2 
73 169 47.2 82.8 169 48 71 169.8 48 
72 169.8 48 72.2 170 48 73 170 47.2 
74 170 47.2 75 170 47.2 76 170 47.2 
77 170 47.2 82.8 170 48 73 171 47.2 
72.2 171 48 74 171 47.2 75 171 47.2 
76 171 47.2 77 171 47.2 82 171 47.2 
82.8 171 48 73 171.8 48 74 171.8 48 
74.2 172 48 75 172 47.2 76 172 47.2 
77 172 47.2 78 172 47.2 79 172 47.2 
80 172 47.2 81 172 47.2 82 172 47.2 
82.8 172 48 75 173 47.2 74.2 173 48 
76 173 47.2 77 173 47.2 78 173 47.2 
79 173 47.2 80 173 47.2 81 173 47.2 
82 173 47.2 82.8 173 48 75 174 47.2 
74.2 174 48 76 174 47.2 77 174 47.2 
78 174 47.2 79 174 47.2 80 174 47.2 
81 174 47.2 82 174 47.2 82.8 174 48 
75 175 47.2 74.2 175 48 76 175 47.2 
77 175 47.2 78 175 47.2 79 175 47.2 
80 175 47.2 81 175 47.2 82 175 47.2 
82.8 175 48 75 175.8 48 76 175.8 48 
76.2 176 48 77 176 47.2 78 176 47.2 
79 176 47.2 80 176 47.2 81 176 47.2 
82 176 47.2 82.8 176 48 77 177 47.2 
76.2 177 48 78 177 47.2 79 177 47.2 
80 177 47.2 81 177 47.2 82 177 47.2 
82.8 177 48 77 178 47.2 76.2 178 48 
78 178 47.2 79 178 47.2 80 178 47.2 
81 178 47.2 82 178 47.2 82.8 178 48 
77 179 47.2 76.2 179 48 78 179 47.2 
79 179 47.2 80 179 47.2 81 179 47.2 
82 179 47.2 82.8 179 48 77 180 47.2 
76.2 180 48 78 180 47.2 79 180 47.2 
80 180 47.2 81 180 47.2 82 180 47.2 
82.8 180 48 77 181 47.2 76.2 181 48 
78 181 47.2 79 181 47.2 80 181 47.2 
81 181 47.2 82 181 47.2 82.8 181 48 
77 181.8 48 78 181.8 48 78.2 182 48 
79 182 47.2 80 182 47.2 81 182 47.2 
82 182 47.2 82.8 182 48 79 183 47.2 
78.2 183 48 80 183 47.2 81 183 47.2 
82 183 47.2 82.8 183 48 79 183.8 48 
80 183.8 48 80.2 184 48 81 184 47.2 
82 184 47.2 82.8 184 48 81 185 47.2 
80.2 185 48 81.8 185 48 82 184.8 48 
81 185.8 48 75 137 48.2 75 136.2 49 
74.2 137 49 76 137 48.2 76 136.2 49 
76.8 137 49 75 137.8 49 75.2 138 49 
76 138 48.2 77 137.2 49 78 137.2 49 
78.8 138 49 76 139 48.2 75.2 139 49 
78.8 139 49 76 140 48.2 75.2 140 49 
79 139.2 49 80 140 48.8 79.8 140 49 
75 141 48.2 75 140.2 49 74.2 141 49 
80 141 48.8 79.8 141 49 74.2 142 49 
80 142 48.8 79.8 142 49 74.2 143 49 
80 143 48.8 79.8 143 49 74.2 144 49 
80 144 48.8 79.8 144 49 74.2 145 49 
80 145 48.8 79.8 145 49 74.2 146 49 
80 146 48.8 79.8 146 49 74.2 147 49 
80 147 48.8 79.8 147 49 74.2 148 49 
80 148 48.8 79.8 148 49 74.2 149 49 
80 149 48.8 79.8 149 49 74.2 150 49 
80 150 48.8 79.8 150 49 74 150.2 49 
73.2 151 49 80 151 48.8 79.8 151 49 
73 151.2 49 72.2 152 49 80 152 48.8 
79.8 152 49 72 152.2 49 71.2 153 49 
80 153 48.8 79.8 153 49 69 153.2 49 
68.2 154 49 70 153.2 49 71 153.2 49 
80 154 48.8 79.8 154 49 68 154.2 49 
67.2 155 49 80 155 48.8 79.8 155 49 
67 155.2 49 66.2 156 49 80 155.2 49 
81 155.2 49 82 156 48.8 81.8 156 49 
67 156.8 49 67 157 48.8 68 156.8 49 
68 157 48.8 68.2 157 49 82 157 48.8 
81.8 157 49 68.2 158 49 82 158 48.8 
[...]
POINT_DATA 5548
SCALARS scalars float
LOOKUP_TABLE default
1 1 1 1 1 1 1 1 1 
1 1 1 1 1 1 1 1 1 
1 1 1 1 1 1 1 1 1 
1 1 1 1 1 1 1 1 1 
1 1 1 1 1 1 1 1 1 
1 1 1 1 1 1 1 1 1 
1 1 1 1 1 1 1 1 1 
1 1 1 1 1 1 1 1 1 
1 1 1 1 1 1 1 1 1 
1 1 1 1 1 1 1 1 1 
1 1 1 1 1 1 1 1 1 
1 1 1 1 1 1 1 1 1 
1 1 1 1 1 1 1 1 1 
1 1 1 1 1 1 1 1 1 
1 1 1 1 1 1 1 1 1 
1 1 1 1 1 1 1 1 1 
1 1 1 1 1 1 1 1 1 
1 1 1 1 1 1 1 1 1 
1 1 1 1 1 1 1 1 1 
1 1 1 1 1 1 1 1 1 
1 1 1 1 1 1 1 1 1 
1 1 1 1 1 1 1 1 1 
1 1 1 1 1 1 1 1 1 
1 1 1 1 1 1 1 1 1 
1 1 1 1 1 1 1 1 1 
1 1 1 1 1 1 1 1 1 
1 1 1 1 1 1 1 1 1 
1 1 1 1 1 1 1 1 1 
1 1 1 1 1 1 1 1 1 
1 1 1 1 1 1 1 1 1 
1 1 1 1 1 1 1 1 1 
1 1 1 1 1 1 1 1 1 
1 1 1 1 1 1 1 1 1 
1 1 1 1 1 1 1 1 1 
1 1 1 1 1 1 1 1 1 
1 1 1 1 1 1 1 1 1 
1 1 1 1 1 1 1 1 1 
1 1 1 1 1 1 1 1 1 
1 1 1 1 1 1 1 1 1 
1 1 1 1 1 1 1 1 1 
1 1 1 1 1 1 1 1 1 
1 1 1 1 1 1 1 1 1 
1 1 1 1 1 1 1 1 1 
1 1 1 1 1 1 1 1 1 
1 1 1 1 1 1 1 1 1 
1 1 1 1 1 1 1 1 1 
1 1 1 1 1 1 1 1 1 
1 1 1 1 1 1 1 1 1 
1 1 1 1 1 1 1 1 1 
1 1 1 1 1 1 1 1 1 
1 1 1 1 1 1 1 1 1 
1 1 1 1 1 1 1 1 1 
1 1 1 1 1 1 1 1 1 
1 1 1 1 1 1 1 1 1 
1 1 1 1 1 1 1 1 1 
1 1 1 1 1 1 1 1 1 
1 1 1 1 1 1 1 1 1 
1 1 1 1 1 1 1 1 1 
1 1 1 1 1 1 1 1 1 
1 1 1 1 1 1 1 1 1 
1 1 1 1 1 1 1 1 1 
1 1 1 1 1 1 1 1 1 
1 1 1 1 1 1 1 1 1 
1 1 1 1 1 1 1 1 1 
1 1 1 1 1 1 1 1 1 
1 1 1 1 1 1 1 1 1 
1 1 1 1 1 1 1 1 1 
1 1 1 1 1 1 1 1 1 
1 1 1 1 1 1 1 1 1 
1 1 1 1 1 1 1 1 1 
1 1 1 1 1 1 1 1 1 
1 1 1 1 1 1 1 1 1 
1 1 1 1 1 1 1 1 1 
1 1 1 1 1 1 1 1 1 
1 1 1 1 1 1 1 1 1 
1 1 1 1 1 1 1 1 1 
1 1 1 1 1 1 1 1 1 
1 1 1 1 1 1 1 1 1 
1 1 1 1 1 1 1 1 1 
1 1 1 1 1 1 1 1 1 
1 1 1 1 1 1 1 1 1 
1 1 1 1 1 1 1 1 1 
1 1 1 1 1 1 1 1 1 
1 1 1 1 1 1 1 1 1 
1 1 1 1 1 1 1 1 1 
1 1 1 1 1 1 1 1 1 
1 1 1 1 1 1 1 1 1 
1 1 1 1 1 1 1 1 1 
1 1 1 1 1 1 1 1 1 
1 1 1 1 1 1 1 1 1 
1 1 1 1 1 1 1 1 1 
1 1 1 1 1 1 1 1 1 
1 1 1 1 1 1 1 1 1 
1 1 1 1 1 1 1 1 1 
1 1 1 1 1 1 1 1 1 
1 1 1 1 1 1 1 1 1 
1 1 1 1 1 1 1 1 1 
1 1 1 1 1 1 1 1 1 
1 1 1 1 1 1 1 1 1 
1 1 1 1 1 1 1 1 1 
1 1 1 1 1 1 1 1 1 
1 1 1 1 1 1 1 1 1 
1 1 1 1 1 1 1 1 1 
1 1 1 1 1 1 1 1 1 
1 1 1 1 1 1 1 1 1 
1 1 1 1 1 1 1 1 1 
1 1 1 1 1 1 1 1 1 
1 1 1 1 1 1 1 1 1 
1 1 1 1 1 1 1 1 1 
1 1 1 1 1 1 1 1 1 
1 1 1 1 1 1 1 1 1 
1 1 1 1 1 1 1 1 1 
1 1 1 1 1 1 1 1 1 
1 1 1 1 1 1 1 1 1 
1 1 1 1 1 1 1 1 1 
1 1 1 1 1 1 1 1 1 
1 1 1 1 1 1 1 1 1 
1 1 1 1 1 1 1 1 1 
1 1 1 1 1 1 1 1 1 
1 1 1 1 1 1 1 1 1 
1 1 1 1 1 1 1 1 1 
1 1 1 1 1 1 1 1 1 
1 1 1 1 1 1 1 1 1 
1 1 1 1 1 1 1 1 1 
1 1 1 1 1 1 1 1 1 
1 1 1 1 1 1 1 1 1 
1 1 1 1 1 1 1 1 1 
1 1 1 1 1 1 1 1 1 
1 1 1 1 1 1 1 1 1 
1 1 1 1 1 1 1 1 1 
1 1 1 1 1 1 1 1 1 
1 1 1 1 1 1 1 1 1 
1 1 1 1 1 1 1 1 1 
1 1 1 1 1 1 1 1 1 
1 1 1 1 1 1 1 1 1 
1 1 1 1 1 1 1 1 1 
1 1 1 1 1 1 1 1 1 
1 1 1 1 1 1 1 1 1 
1 1 1 1 1 1 1 1 1 
1 1 1 1 1 1 1 1 1 
1 1 1 1 1 1 1 1 1 
1 1 1 1 1 1 1 1 1 
1 1 1 1 1 1 1 1 1 
1 1 1 1 1 1 1 1 1 
1 1 1 1 1 1 1 1 1 
1 1 1 1 1 1 1 1 1 
1 1 1 1 1 1 1 1 1 
1 1 1 1 1 1 1 1 1 
1 1 1 1 1 1 1 1 1 
1 1 1 1 1 1 1 1 1 
1 1 1 1 1 1 1 1 1 
1 1 1 1 1 1 1 1 1 
1 1 1 1 1 1 1 1 1 
1 1 1 1 1 1 1 1 1 
1 1 1 1 1 1 1 1 1 
1 1 1 1 1 1 1 1 1 
1 1 1 1 1 1 1 1 1 
1 1 1 1 1 1 1 1 1 
1 1 1 1 1 1 1 1 1 
1 1 1 1 1 1 1 1 1 
1 1 1 1 1 1 1 1 1 
1 1 1 1 1 1 1 1 1 
1 1 1 1 1 1 1 1 1 
1 1 1 1 1 1 1 1 1 
1 1 1 1 1 1 1 1 1 
1 1 1 1 1 1 1 1 1 
1 1 1 1 1 1 1 1 1 
1 1 1 1 1 1 1 1 1 
1 1 1 1 1 1 1 1 1 
1 1 1 1 1 1 1 1 1 
1 1 1 1 1 1 1 1 1 
1 1 1 1 1 1 1 1 1 
1 1 1 1 1 1 1 1 1 
1 1 1 1 1 1 1 1 1 
1 1 1 1 1 1 1 1 1 
1 1 1 1 1 1 1 1 1 
1 1 1 1 1 1 1 1 1 
1 1 1 1 1 1 1 1 1 
1 1 1 1 1 1 1 1 1 
1 1 1 1 1 1 1 1 1 
1 1 1 1 1 1 1 1 1 
1 1 1 1 1 1 1 1 1 
1 1 1 1 1 1 1 1 1 
1 1 1 1 1 1 1 1 1 
1 1 1 1 1 1 1 1 1 
1 1 1 1 1 1 1 1 1 
1 1 1 1 1 1 1 1 1 
1 1 1 1 1 1 1 1 1 
1 1 1 1 1 1 1 1 1 
1 1 1 1 1 1 1 1 1 
1 1 1 1 1 1 1 1 1 
1 1 1 1 1 1 1 1 1 
1 1 1 1 1 1 1 1 1 
1 1 1 1 1 1 1 1 1 
1 1 1 1 1 1 1 1 1 
1 1 1 1 1 1 1 1 1 
1 1 1 1 1 1 1 1 1 
1 1 1 1 1 1 1 1 1 
1 1 1 1 1 1 1 1 1 
1 1 1 1 1 1 1 1 1 
1 1 1 1 1 1 1 1 1 
1 1 1 1 1 1 1 1 1 
1 1 1 1 1 1 1 1 1 
1 1 1 1 1 1 1 1 1 
1 1 1 1 1 1 1 1 1 
1 1 1 1 1 1 1 1 1 
1 1 1 1 1 1 1 1 1 
1 1 1 1 1 1 1 1 1 
1 1 1 1 1 1 1 1 1 
1 1 1 1 1 1 1 1 1 
1 1 1 1 1 1 1 1 1 
1 1 1 1 1 1 1 1 1 
1 1 1 1 1 1 1 1 1 
1 1 1 1 1 1 1 1 1 
1 1 1 1 1 1 1 1 1 
1 1 1 1 1 1 1 1 1 
1 1 1 1 1 1 1 1 1 
1 1 1 1 1 1 1 1 1 
1 1 1 1 1 1 1 1 1 
1 1 1 1 1 1 1 1 1 
1 1 1 1 1 1 1 1 1 
1 1 1 1 1 1 1 1 1 
1 1 1 1 1 1 1 1 1 
1 1 1 1 1 1 1 1 1 
1 1 1 1 1 1 1 1 1 
1 1 1 1 1 1 1 1 1 
1 1 1 1 1 1 1 1 1 
1 1 1 1 1 1 1 1 1 
1 1 1 1 1 1 1 1 1 
1 1 1 1 1 1 1 1 1 
1 1 1 1 1 1 1 1 1 
1 1 1 1 1 1 1 1 1 
1 1 1 1 1 1 1 1 1 
1 1 1 1 1 1 1 1 1 
1 1 1 1 1 1 1 1 1 
1 1 1 1 1 1 1 1 1 
1 1 1 1 1 1 1 1 1 
1 1 1 1 1 1 1 1 1 
1 1 1 1 1 1 1 1 1 
1 1 1 1 1 1 1 1 1 
1 1 1 1 1 1 1 1 1 
1 1 1 1 1 1 1 1 1 
1 1 1 1 1 1 1 1 1 
1 1 1 1 1 1 1 1 1 
1 1 1 1 1 1 1 1 1 
1 1 1 1 1 1 1 1 1 
1 1 1 1 1 1 1 1 1 
1 1 1 1 1 1 1 1 1 
1 1 1 1 1 1 1 1 1 
1 1 1 1 1 1 1 1 1 
1 1 1 1 1 1 1 1 1 
1 1 1 1 1 1 1 1 1 
1 1 1 1 1 1 1 1 1 
1 1 1 1 1 1 1 1 1 
1 1 1 1 1 1 1 1 1 
1 1 1 1 1 1 1 1 1 
1 1 1 1 1 1 1 1 1 
1 1 1 1 1 1 1 1 1 
1 1 1 1 1 1 1 1 1 
1 1 1 1 1 1 1 1 1 
1 1 1 1 1 1 1 1 1 
1 1 1 1 1 1 1 1 1 
1 1 1 1 1 1 1 1 1 
1 1 1 1 1 1 1 1 1 
1 1 1 1 1 1 1 1 1 
1 1 1 1 1 1 1 1 1 
1 1 1 1 1 1 1 1 1 
1 1 1 1 1 1 1 1 1 
1 1 1 1 1 1 1 1 1 
1 1 1 1 1 1 1 1 1 
1 1 1 1 1 1 1 1 1 
1 1 1 1 1 1 1 1 1 
1 1 1 1 1 1 1 1 1 
1 1 1 1 1 1 1 1 1 
1 1 1 1 1 1 1 1 1 
1 1 1 1 1 1 1 1 1 
1 1 1 1 1 1 1 1 1 
1 1 1 1 1 1 1 1 1 
1 1 1 1 1 1 1 1 1 
1 1 1 1 1 1 1 1 1 
1 1 1 1 1 1 1 1 1 
1 1 1 1 1 1 1 1 1 
1 1 1 1 1 1 1 1 1 
1 1 1 1 1 1 1 1 1 
1 1 1 1 1 1 1 1 1 
1 1 1 1 1 1 1 1 1 
1 1 1 1 1 1 1 1 1 
1 1 1 1 1 1 1 1 1 
1 1 1 1 1 1 1 1 1 
1 1 1 1 1 1 1 1 1 
1 1 1 1 1 1 1 1 1 
1 1 1 1 1 1 1 1 1 
1 1 1 1 1 1 1 1 1 
1 1 1 1 1 1 1 1 1 
1 1 1 1 1 1 1 1 1 
1 1 1 1 1 1 1 1 1 
1 1 1 1 1 1 1 1 1 
1 1 1 1 1 1 1 1 1 
1 1 1 1 1 1 1 1 1 
1 1 1 1 1 1 1 1 1 
1 1 1 1 1 1 1 1 1 
1 1 1 1 1 1 1 1 1 
1 1 1 1 1 1 1 1 1 
1 1 1 1 1 1 1 1 1 
1 1 1 1 1 1 1 1 1 
1 1 1 1 1 1 1 1 1 
1 1 1 1 1 1 1 1 1 
1 1 1 1 1 1 1 1 1 
1 1 1 1 1 1 1 1 1 
1 1 1 1 1 1 1 1 1 
1 1 1 1 1 1 1 1 1 
1 1 1 1 1 1 1 1 1 
1 1 1 1 1 1 1 1 1 
1 1 1 1 1 1 1 1 1 
1 1 1 1 1 1 1 1 1 
1 1 1 1 1 1 1 1 1 
1 1 1 1 1 1 1 1 1 
1 1 1 1 1 1 1 1 1 
1 1 1 1 1 1 1 1 1 
1 1 1 1 1 1 1 1 1 
1 1 1 1 1 1 1 1 1 
1 1 1 1 1 1 1 1 1 
1 1 1 1 1 1 1 1 1 
1 1 1 1 1 1 1 1 1 
1 1 1 1 1 1 1 1 1 
1 1 1 1 1 1 1 1 1 
1 1 1 1 1 1 1 1 1 
1 1 1 1 1 1 1 1 1 
1 1 1 1 1 1 1 1 1 
1 1 1 1 1 1 1 1 1 
1 1 1 1 1 1 1 1 1 
1 1 1 1 1 1 1 1 1 
1 1 1 1 1 1 1 1 1 
1 1 1 1 1 1 1 1 1 
1 1 1 1 1 1 1 1 1 
1 1 1 1 1 1 1 1 1 
1 1 1 1 1 1 1 1 1 
1 1 1 1 1 1 1 1 1 
1 1 1 1 1 1 1 1 1 
1 1 1 1 1 1 1 1 1 
1 1 1 1 1 1 1 1 1 
1 1 1 1 1 1 1 1 1 
1 1 1 1 1 1 1 1 1 
1 1 1 1 1 1 1 1 1 
1 1 1 1 1 1 1 1 1 
1 1 1 1 1 1 1 1 1 
1 1 1 1 1 1 1 1 1 
1 1 1 1 1 1 1 1 1 
1 1 1 1 1 1 1 1 1 
1 1 1 1 1 1 1 1 1 
1 1 1 1 1 1 1 1 1 
1 1 1 1 1 1 1 1 1 
1 1 1 1 1 1 1 1 1 
1 1 1 1 1 1 1 1 1 
1 1 1 1 1 1 1 1 1 
1 1 1 1 1 1 1 1 1 
1 1 1 1 1 1 1 1 1 
1 1 1 1 1 1 1 1 1 
1 1 1 1 1 1 1 1 1 
1 1 1 1 1 1 1 1 1 
1 1 1 1 1 1 1 1 1 
1 1 1 1 1 1 1 1 1 
1 1 1 1 1 1 1 1 1 
1 1 1 1 1 1 1 1 1 
1 1 1 1 1 1 1 1 1 
1 1 1 1 1 1 1 1 1 
1 1 1 1 1 1 1 1 1 
1 1 1 1 1 1 1 1 1 
1 1 1 1 1 1 1 1 1 
1 1 1 1 1 1 1 1 1 
1 1 1 1 1 1 1 1 1 
1 1 1 1 1 1 1 1 1 
1 1 1 1 1 1 1 1 1 
1 1 1 1 1 1 1 1 1 
1 1 1 1 1 1 1 1 1 
1 1 1 1 1 1 1 1 1 
1 1 1 1 1 1 1 1 1 
1 1 1 1 1 1 1 1 1 
1 1 1 1 1 1 1 1 1 
1 1 1 1 1 1 1 1 1 
1 1 1 1 1 1 1 1 1 
1 1 1 1 1 1 1 1 1 
1 1 1 1 1 1 1 1 1 
1 1 1 1 1 1 1 1 1 
1 1 1 1 1 1 1 1 1 
1 1 1 1 1 1 1 1 1 
1 1 1 1 1 1 1 1 1 
1 1 1 1 1 1 1 1 1 
1 1 1 1 1 1 1 1 1 
1 1 1 1 1 1 1 1 1 
1 1 1 1 1 1 1 1 1 
1 1 1 1 1 1 1 1 1 
1 1 1 1 1 1 1 1 1 
1 1 1 1 1 1 1 1 1 
1 1 1 1 1 1 1 1 1 
1 1 1 1 1 1 1 1 1 
1 1 1 1 1 1 1 1 1 
1 1 1 1 1 1 1 1 1 
1 1 1 1 1 1 1 1 1 
1 1 1 1 1 1 1 1 1 
1 1 1 1 1 1 1 1 1 
1 1 1 1 1 1 1 1 1 
1 1 1 1 1 1 1 1 1 
1 1 1 1 1 1 1 1 1 
1 1 1 1 1 1 1 1 1 
1 1 1 1 1 1 1 1 1 
1 1 1 1 1 1 1 1 1 
1 1 1 1 1 1 1 1 1 
1 1 1 1 1 1 1 1 1 
1 1 1 1 1 1 1 1 1 
1 1 1 1 1 1 1 1 1 
1 1 1 1 1 1 1 1 1 
1 1 1 1 1 1 1 1 1 
1 1 1 1 1 1 1 1 1 
1 1 1 1 1 1 1 1 1 
1 1 1 1 1 1 1 1 1 
1 1 1 1 1 1 1 1 1 
1 1 1 1 1 1 1 1 1 
1 1 1 1 1 1 1 1 1 
1 1 1 1 1 1 1 1 1 
1 1 1 1 1 1 1 1 1 
1 1 1 1 1 1 1 1 1 
1 1 1 1 1 1 1 1 1 
1 1 1 1 1 1 1 1 1 
1 1 1 1 1 1 1 1 1 
1 1 1 1 1 1 1 1 1 
1 1 1 1 1 1 1 1 1 
1 1 1 1 1 1 1 1 1 
1 1 1 1 1 1 1 1 1 
1 1 1 1 1 1 1 1 1 
1 1 1 1 1 1 1 1 1 
1 1 1 1 1 1 1 1 1 
1 1 1 1 1 1 1 1 1 
1 1 1 1 1 1 1 1 1 
1 1 1 1 1 1 1 1 1 
1 1 1 1 1 1 1 1 1 
1 1 1 1 1 1 1 1 1 
1 1 1 1 1 1 1 1 1 
1 1 1 1 1 1 1 1 1 
1 1 1 1 1 1 1 1 1 
1 1 1 1 1 1 1 1 1 
1 1 1 1 1 1 1 1 1 
1 1 1 1 1 1 1 1 1 
1 1 1 1 1 1 1 1 1 
1 1 1 1 1 1 1 1 1 
1 1 1 1 1 1 1 1 1 
1 1 1 1 1 1 1 1 1 
1 1 1 1 1 1 1 1 1 
1 1 1 1 1 1 1 1 1 
1 1 1 1 1 1 1 1 1 
1 1 1 1 1 1 1 1 1 
1 1 1 1 1 1 1 1 1 
1 1 1 1 1 1 1 1 1 
1 1 1 1 1 1 1 1 1 
1 1 1 1 1 1 1 1 1 
1 1 1 1 1 1 1 1 1 
1 1 1 1 1 1 1 1 1 
1 1 1 1 1 1 1 1 1 
1 1 1 1 1 1 1 1 1 
1 1 1 1 1 1 1 1 1 
1 1 1 1 1 1 1 1 1 
1 1 1 1 1 1 1 1 1 
1 1 1 1 1 1 1 1 1 
1 1 1 1 1 1 1 1 1 
1 1 1 1 1 1 1 1 1 
1 1 1 1 1 1 1 1 1 
1 1 1 1 1 1 1 1 1 
1 1 1 1 1 1 1 1 1 
1 1 1 1 1 1 1 1 1 
1 1 1 1 1 1 1 1 1 
1 1 1 1 1 1 1 1 1 
1 1 1 1 1 1 1 1 1 
1 1 1 1 1 1 1 1 1 
1 1 1 1 1 1 1 1 1 
1 1 1 1 1 1 1 1 1 
1 1 1 1 1 1 1 1 1 
1 1 1 1 1 1 1 1 1 
1 1 1 1 1 1 1 1 1 
1 1 1 1 1 1 1 1 1 
1 1 1 1 1 1 1 1 1 
1 1 1 1 1 1 1 1 1 
1 1 1 1 1 1 1 1 1 
1 1 1 1 1 1 1 1 1 
1 1 1 1 1 1 1 1 1 
1 1 1 1 1 1 1 1 1 
1 1 1 1 1 1 1 1 1 
1 1 1 1 1 1 1 1 1 
1 1 1 1 1 1 1 1 1 
1 1 1 1 1 1 1 1 1 
1 1 1 1 1 1 1 1 1 
1 1 1 1 1 1 1 1 1 
1 1 1 1 1 1 1 1 1 
1 1 1 1 1 1 1 1 1 
1 1 1 1 1 1 1 1 1 
1 1 1 1 1 1 1 1 1 
1 1 1 1 1 1 1 1 1 
1 1 1 1 1 1 1 1 1 
1 1 1 1 1 1 1 1 1 
1 1 1 1 1 1 1 1 1 
1 1 1 1 1 1 1 1 1 
1 1 1 1 1 1 1 1 1 
1 1 1 1 1 1 1 1 1 
1 1 1 1 1 1 1 1 1 
1 1 1 1 1 1 1 1 1 
1 1 1 1 1 1 1 1 1 
1 1 1 1 1 1 1 1 1 
1 1 1 1 1 1 1 1 1 
1 1 1 1 1 1 1 1 1 
1 1 1 1 1 1 1 1 1 
1 1 1 1 1 1 1 1 1 
1 1 1 1 1 1 1 1 1 
1 1 1 1 1 1 1 1 1 
1 1 1 1 1 1 1 1 1 
1 1 1 1 1 1 1 1 1 
1 1 1 1 1 1 1 1 1 
1 1 1 1 1 1 1 1 1 
1 1 1 1 1 1 1 1 1 
1 1 1 1 1 1 1 1 1 
1 1 1 1 1 1 1 1 1 
1 1 1 1 1 1 1 1 1 
1 1 1 1 1 1 1 1 1 
1 1 1 1 1 1 1 1 1 
1 1 1 1 1 1 1 1 1 
1 1 1 1 1 1 1 1 1 
1 1 1 1 1 1 1 1 1 
1 1 1 1 1 1 1 1 1 
1 1 1 1 1 1 1 1 1 
1 1 1 1 1 1 1 1 1 
1 1 1 1 1 1 1 1 1 
1 1 1 1 1 1 1 1 1 
1 1 1 1 1 1 1 1 1 
1 1 1 1 1 1 1 1 1 
1 1 1 1 1 1 1 1 1 
1 1 1 1 1 1 1 1 1 
1 1 1 1 1 1 1 1 1 
1 1 1 1 1 1 1 1 1 
1 1 1 1 1 1 1 1 1 
1 1 1 1 1 1 1 1 1 
1 1 1 1 1 1 1 1 1 
1 1 1 1 1 1 1 1 1 
1 1 1 1 1 1 1 1 1 
1 1 1 1 1 1 1 1 1 
1 1 1 1 1 1 1 1 1 
1 1 1 1 1 1 1 1 1 
1 1 1 1 1 1 1 1 1 
1 1 1 1 1 1 1 1 1 
1 1 1 1 1 1 1 1 1 
1 1 1 1 1 1 1 1 1 
1 1 1 1 1 1 1 1 1 
1 1 1 1 1 1 1 1 1 
1 1 1 1 1 1 1 1 1 
1 1 1 1 1 1 1 1 1 
1 1 1 1 1 1 1 1 1 
1 1 1 1 1 1 1 1 1 
1 1 1 1 1 1 1 1 1 
1 1 1 1 1 1 1 1 1 
1 1 1 1 1 1 1 1 1 
1 1 1 1 1 1 1 1 1 
1 1 1 1 1 1 1 1 1 
1 1 1 1 1 1 1 1 1 
1 1 1 1 1 1 1 1 1 
1 1 1 1 1 1 1 1 1 
1 1 1 1 1 1 1 1 1 
1 1 1 1 1 1 1 1 1 
1 1 1 1 1 1 1 1 1 
1 1 1 1 1 1 1 1 1 
1 1 1 1 1 1 1 1 1 
1 1 1 1 1 1 1 1 1 
1 1 1 1 1 1 1 1 1 
1 1 1 1 1 1 1 1 1 
1 1 1 1 1 1 1 1 1 
1 1 1 1 1 1 1 1 1 
1 1 1 1 1 1 1 1 1 
1 1 1 1 1 1 1 1 1 
1 1 1 1 1 1 1 1 1 
1 1 1 1 1 1 1 1 1 
1 1 1 1 1 1 1 1 1 
1 1 1 1 1 1 1 1 1 
1 1 1 1 1 1 1 1 1 
1 1 1 1 1 1 1 1 1 
1 1 1 1 1 1 1 1 1 
1 1 1 1 1 1 1 1 1 
1 1 1 1 1 1 1 1 1 
1 1 1 1 1 1 1 1 1 
1 1 1 1 1 1 1 1 1 
1 1 1 1 1 1 1 1 1 
1 1 1 1 1 1 1 1 1 
1 1 1 1 1 1 1 1 1 
1 1 1 1 1 1 1 1 1 
1 1 1 1 1 1 1 1 1 
1 1 1 1 1 1 1 1 1 
1 1 1 1 1 1 1 1 1 
1 1 1 1 1 1 1 1 1 
1 1 1 1 1 1 1 1 1 
1 1 1 1 1 1 1 1 1 
1 1 1 1 1 1 1 1 1 
1 1 1 1 1 1 1 1 1 
1 1 1 1 1 1 1 1 1 
1 1 1 1 1 1 1 1 1 
1 1 1 1 1 1 1 1 1 
1 1 1 1 1 1 1 1 1 
1 1 1 1 1 1 1 1 1 
1 1 1 1 1 1 1 1 1 
1 1 1 1 1 1 1 1 1 
1 1 1 1 1 1 1 1 1 
1 1 1 1 1 1 1 1 1 
1 1 1 1 1 1 1 1 1 
1 1 1 1 1 1 1 1 1 
1 1 1 1 1 1 1 1 1 
1 1 1 1 1 1 1 1 1 
1 1 1 1 1 1 1 1 1 
1 1 1 1 1 1 1 1 1 
1 1 1 1 1 1 1 1 1 
1 1 1 1 1 1 1 1 1 
1 1 1 1 1 1 1 1 1 
1 1 1 1 1 1 1 1 1 
1 1 1 1 
NORMALS normals float
0 -0.196116 -0.980581 0 -0.980581 -0.196116 -0.617213 -0.771517 -0.154303 
0.492366 -0.615457 -0.615457 -0.19245 -0.19245 -0.96225 -0.70014 -0.70014 -0.140028 
-0.96225 -0.19245 -0.19245 0 0 -1 0.492366 -0.615457 -0.615457 
0 -0.196116 -0.980581 0.19245 -0.19245 -0.96225 0.140028 -0.70014 -0.70014 
0.96225 -0.19245 -0.19245 -0.196116 0 -0.980581 -0.980581 0 -0.196116 
0 0 -1 0 0 -1 0.196116 0 -0.980581 
0.615457 -0.492366 -0.615457 -0.196116 0 -0.980581 -0.980581 0 -0.196116 
0 0 -1 0 0 -1 0 0 -1 
0.492366 -0.615457 -0.615457 0 -0.196116 -0.980581 0.19245 -0.19245 -0.96225 
0.19245 -0.96225 -0.19245 0.96225 -0.19245 -0.19245 -0.196116 0 -0.980581 
-0.980581 0 -0.196116 0 0 -1 0 0 -1 
0 0 -1 0 0 -1 0.196116 0 -0.980581 
0.980581 0 -0.196116 -0.196116 0 -0.980581 -0.980581 0 -0.196116 
0 0 -1 0 0 -1 0 0 -1 
0 0 -1 0.196116 0 -0.980581 0.980581 0 -0.196116 
-0.196116 0 -0.980581 -0.980581 0 -0.196116 0 0 -1 
0 0 -1 0 0 -1 0 0 -1 
0.196116 0 -0.980581 0.980581 0 -0.196116 -0.196116 0 -0.980581 
-0.980581 0 -0.196116 0 0 -1 0 0 -1 
0 0 -1 0 0 -1 0.196116 0 -0.980581 
0.980581 0 -0.196116 -0.196116 0 -0.980581 -0.980581 0 -0.196116 
0 0 -1 0 0 -1 0 0 -1 
0 0 -1 0.196116 0 -0.980581 0.980581 0 -0.196116 
-0.196116 0 -0.980581 -0.771517 -0.617213 -0.154303 0 0 -1 
0 0 -1 0 0 -1 0 0 -1 
0.196116 0 -0.980581 0.980581 0 -0.196116 -0.19245 -0.19245 -0.96225 
-0.70014 -0.70014 -0.140028 -0.70014 -0.70014 -0.140028 0 0 -1 
0 0 -1 0 0 -1 0 0 -1 
0 0 -1 0.196116 0 -0.980581 0.771517 -0.617213 -0.154303 
-0.19245 -0.19245 -0.96225 -0.70014 -0.70014 -0.140028 -0.70014 -0.70014 -0.140028 
0 0 -1 0 0 -1 0 0 -1 
0 0 -1 0 0 -1 0 0 -1 
0 0 -1 0.617213 -0.771517 -0.154303 0 -0.196116 -0.980581 
0.235702 -0.235702 -0.942809 0.196116 -0.980581 0 0.980581 -0.196116 0 
-0.196116 0 -0.980581 -0.771517 -0.617213 -0.154303 -0.980581 0 -0.196116 
0 0 -1 0 0 -1 0 0 -1 
0 0 -1 0 0 -1 0 0 -1 
0 0 -1 0 0 -1 0 0 -1 
0.242536 0 -0.970142 1 0 0 -0.615457 0.492366 -0.615457 
-0.615457 0.492366 -0.615457 -0.196116 0 -0.980581 0 0 -1 
0 0 -1 0 0 -1 0 0 -1 
0 0 -1 0 0 -1 0 0 -1 
0 0 -1 0.242536 0 -0.970142 1 0 0 
-0.196116 0 -0.980581 -0.707107 0 -0.707107 0 0 -1 
0 0 -1 0 0 -1 0 0 -1 
0 0 -1 0 0 -1 0 0 -1 
0 0 -1 0.242536 0 -0.970142 1 0 0 
-0.196116 0 -0.980581 -0.707107 0 -0.707107 0 0 -1 
0 0 -1 0 0 -1 0 0 -1 
0 0 -1 0 0 -1 0 0 -1 
0 0 -1 0.196116 0 -0.980581 0.980581 0 -0.196116 
-0.196116 0 -0.980581 -0.707107 0 -0.707107 0 0 -1 
0 0 -1 0 0 -1 0 0 -1 
0 0 -1 0 0 -1 0 0 -1 
0 0 -1 0.196116 0 -0.980581 0.980581 0 -0.196116 
-0.196116 0 -0.980581 -0.707107 0 -0.707107 0 0 -1 
0 0 -1 0 0 -1 0 0 -1 
0 0 -1 0 0 -1 0 0 -1 
0 0 -1 0.196116 0 -0.980581 0.980581 0 -0.196116 
-0.196116 0 -0.980581 -0.707107 0 -0.707107 0 0 -1 
0 0 -1 0 0 -1 0 0 -1 
0 0 -1 0 0 -1 0 0 -1 
0 0 -1 0.196116 0 -0.980581 0.980581 0 -0.196116 
-0.196116 0 -0.980581 -0.707107 0 -0.707107 0 0 -1 
0 0 -1 0 0 -1 0 0 -1 
0 0 -1 0 0 -1 0 0 -1 
0 0 -1 0.196116 0 -0.980581 0.980581 0 -0.196116 
-0.196116 0 -0.980581 -0.707107 0 -0.707107 0 0 -1 
0 0 -1 0 0 -1 0 0 -1 
0 0 -1 0 0 -1 0 0 -1 
0 0 -1 0.196116 0 -0.980581 0.980581 0 -0.196116 
-0.196116 0 -0.980581 -0.707107 0 -0.707107 0 0 -1 
0 0 -1 0 0 -1 0 0 -1 
0 0 -1 0 0 -1 0 0 -1 
0 0 -1 0.196116 0 -0.980581 0.980581 0 -0.196116 
-0.196116 0 -0.980581 -0.707107 0 -0.707107 0 0 -1 
0 0 -1 0 0 -1 0 0 -1 
0 0 -1 0 0 -1 0 0 -1 
0 0 -1 0.196116 0 -0.980581 0.980581 0 -0.196116 
-0.196116 0 -0.980581 -0.707107 0 -0.707107 0 0 -1 
0 0 -1 0 0 -1 0 0 -1 
0 0 -1 0 0 -1 0 0 -1 
0 0 -1 0.196116 0 -0.980581 0.980581 0 -0.196116 
-0.19245 0.19245 -0.96225 -0.70014 0.140028 -0.70014 0 0.196116 -0.980581 
0 0 -1 0 0 -1 0 0 -1 
0 0 -1 0 0 -1 0 0 -1 
0 0 -1 0.196116 0 -0.980581 0.980581 0 -0.196116 
-0.19245 0.96225 -0.19245 -0.492366 0.615457 -0.615457 -0.615457 0.492366 -0.615457 
-0.196116 0 -0.980581 0 0 -1 0 0 -1 
0 0 -1 0 0 -1 0 0 -1 
0 0 -1 0.196116 0 -0.980581 0.980581 0 -0.196116 
-0.196116 0 -0.980581 -0.707107 0 -0.707107 0 0 -1 
0 0 -1 0 0 -1 0 0 -1 
0 0 -1 0 0 -1 0.196116 0 -0.980581 
0.980581 0 -0.196116 -0.196116 0 -0.980581 -0.707107 0 -0.707107 
0 0 -1 0 0 -1 0 0 -1 
0 0 -1 0 0 -1 0 0 -1 
0.196116 0 -0.980581 0.980581 0 -0.196116 -0.19245 0.19245 -0.96225 
-0.70014 0.140028 -0.70014 0 0.196116 -0.980581 0 0.196116 -0.980581 
0 0.196116 -0.980581 0 0 -1 0 0 -1 
0 0 -1 0.196116 0 -0.980581 0.980581 0 -0.196116 
-0.19245 0.96225 -0.19245 0 0.980581 -0.196116 0 0.980581 -0.196116 
-0.492366 0.615457 -0.615457 -0.615457 0.492366 -0.615457 -0.196116 0 -0.980581 
0 0 -1 0 0 -1 0.19245 0.19245 -0.96225 
0.96225 0.19245 -0.19245 -0.19245 0.19245 -0.96225 -0.70014 0.140028 -0.70014 
0 0.196116 -0.980581 0.19245 0.19245 -0.96225 0.70014 0.70014 -0.140028 
0.70014 0.70014 -0.140028 -0.19245 0.96225 -0.19245 0 0.980581 -0.196116 
0.19245 0.96225 -0.19245 -0.196116 -0.980581 0 -0.707107 -0.707107 0 
0.492366 -0.615457 -0.615457 0 -0.707107 -0.707107 0.140028 -0.70014 -0.70014 
0.140028 -0.70014 -0.70014 0.70014 -0.140028 -0.70014 -0.707107 -0.707107 0 
-0.980581 -0.196116 0 0.662266 -0.529813 -0.529813 -1 0 0 
0.57735 -0.57735 -0.57735 0.57735 -0.57735 -0.57735 0.57735 -0.57735 -0.57735 
-1 0 0 0.615457 -0.615457 -0.492366 0.980581 -0.196116 0 
-1 0 0 1 0 0 -1 0 0 
1 0 0 -1 0 0 1 0 0 
-1 0 0 1 0 0 -1 0 0 
1 0 0 -0.780869 -0.624695 0 1 0 0 
-0.707107 -0.707107 0 -0.707107 -0.707107 0 0.780869 -0.624695 0 
-0.707107 -0.707107 0 -0.707107 -0.707107 0 0.70014 -0.70014 0.140028 
0.771517 -0.154303 0.617213 0.70014 -0.140028 0.70014 -0.707107 -0.707107 0 
-0.980581 -0.196116 0 0.780869 0 0.624695 0.707107 0 0.707107 
-0.615457 0.492366 -0.615457 -0.707107 0 -0.707107 0.780869 0 0.624695 
0.707107 0 0.707107 -0.707107 0 -0.707107 -0.707107 0 -0.707107 
0.662266 -0.529813 0.529813 0.615457 -0.492366 0.615457 -0.707107 0 -0.707107 
-0.707107 0 -0.707107 0.615457 -0.615457 0.492366 0.980581 -0.196116 0 
-0.707107 0 -0.707107 -0.707107 0 -0.707107 1 0 0 
-0.707107 0 -0.707107 -0.707107 0 -0.707107 1 0 0 
-0.707107 0 -0.707107 -0.707107 0 -0.707107 1 0 0 
-0.707107 0 -0.707107 -0.707107 0 -0.707107 1 0 0 
-0.707107 0 -0.707107 -0.707107 0 -0.707107 1 0 0 
-0.707107 0 -0.707107 -0.707107 0 -0.707107 1 0 0 
-0.707107 0 -0.707107 -0.707107 0 -0.707107 1 0 0 
-0.707107 0 -0.707107 -0.707107 0 -0.707107 1 0 0 
-0.70014 0.140028 -0.70014 -0.70014 0.140028 -0.70014 1 0 0 
-0.140028 0.70014 -0.70014 -0.529813 0.662266 -0.529813 -0.615457 0.492366 -0.615457 
-0.615457 0.492366 -0.615457 1 0 0 -0.707107 0 -0.707107 
-0.707107 0 -0.707107 1 0 0 -0.707107 0 -0.707107 
-0.707107 0 -0.707107 1 0 0 -0.70014 0.140028 -0.70014 
-0.70014 0.140028 -0.70014 1 0 0 -0.140028 0.70014 -0.70014 
0 0.780869 -0.624695 0 0.780869 -0.624695 -0.529813 0.662266 -0.529813 
-0.615457 0.492366 -0.615457 -0.615457 0.492366 -0.615457 0.980581 0.196116 0 
-0.70014 0.140028 -0.70014 -0.70014 0.140028 -0.70014 0.615457 0.615457 -0.492366 
0.615457 0.615457 -0.492366 -0.140028 0.70014 -0.70014 0 0.780869 -0.624695 
0 0.780869 -0.624695 0.154303 0.771517 -0.617213 -0.19245 -0.19245 -0.96225 
-0.19245 -0.96225 -0.19245 -0.70014 -0.140028 -0.70014 0.19245 -0.19245 -0.96225 
0.19245 -0.96225 -0.19245 0.96225 -0.19245 -0.19245 -0.196116 0 -0.980581 
-0.707107 0 -0.707107 0.196116 0 -0.980581 0.771517 -0.617213 -0.154303 
-0.154303 -0.617213 -0.771517 -0.615457 -0.492366 -0.615457 0 -0.624695 -0.780869 
0.617213 -0.771517 -0.154303 0 -0.196116 -0.980581 0.235702 -0.235702 -0.942809 
0.196116 -0.980581 0 0.980581 -0.196116 0 -0.615457 -0.615457 -0.492366 
-0.615457 -0.615457 -0.492366 0.624695 0 -0.780869 0.242536 0 -0.970142 
1 0 0 -0.615457 -0.615457 -0.492366 -0.980581 -0.196116 0 
0.529813 -0.529813 -0.662266 0.242536 0 -0.970142 1 0 0 
-1 0 0 0.662266 -0.529813 -0.529813 1 0 0 
-1 0 0 0.980581 0 0.196116 -1 0 0 
0.980581 0 0.196116 -1 0 0 0.980581 0 0.196116 
-1 0 0 0.980581 0 0.196116 -1 0 0 
0.980581 0 0.196116 -1 0 0 0.980581 0 0.196116 
-0.780869 -0.624695 0 0.980581 0 0.196116 -0.707107 -0.707107 0 
-0.707107 -0.707107 0 0.980581 0 0.196116 -0.707107 -0.707107 0 
-0.707107 -0.707107 0 0.70014 -0.140028 0.70014 0.707107 0 0.707107 
-0.707107 -0.707107 0 -0.707107 -0.707107 0 0.707107 0 0.707107 