# vtk DataFile Version 3.0
vtk output
ASCII
DATASET POLYDATA
POINTS 4864 float
42 136 70.0909 42 135.091 71 41.0909 136 71 
42.9091 136 71 42 137 70.0909 41.0909 137 71 
42.9091 137 71 42 138 70.0909 41.0909 138 71 
42.9091 138 71 35 139 70.0909 35 138.091 71 
34.0909 139 71 36 139 70.0909 36 138.091 71 
36.9091 139 71 38 139 70.0909 38 138.091 71 
37.0909 139 71 39 139 70.0909 39 138.091 71 
40 139 70.0909 40 138.091 71 41 139 70.0909 
41 138.091 71 42 139 70.0909 42.9091 139 71 
35 139.909 71 35.0909 140 71 36 140 70.0909 
36.9091 140 71 38 140 70.0909 37.0909 140 71 
38.9091 140 71 39 139.909 71 40 139.909 71 
41 139.909 71 42 139.909 71 36 140.909 71 
38 140.909 71 38 135 71.0909 38 134.091 72 
37.0909 135 72 38.9091 135 72 42 135 71.0909 
42 134.091 72 41.0909 135 72 42.9091 135 72 
37 136 71.0909 37 135.091 72 36.0909 136 72 
38 136 71.0909 39 135.091 72 39 136 71.0909 
40 136 71.0909 40 135.091 72 41 136 71.0909 
41 135.091 72 43 136 71.0909 43 135.091 72 
44 136 71.0909 44 135.091 72 44.9091 136 72 
36 137 71.0909 36 136.091 72 35.0909 137 72 
37 137 71.0909 38 137 71.0909 39 137 71.0909 
40 137 71.0909 41 137 71.0909 43 137 71.0909 
44 137 71.0909 44.9091 137 72 35 138 71.0909 
35 137.091 72 34.0909 138 72 36 138 71.0909 
37 138 71.0909 38 138 71.0909 39 138 71.0909 
40 138 71.0909 41 138 71.0909 43 138 71.0909 
44 138 71.0909 44.9091 138 72 34.0909 139 72 
37 139 71.0909 43 139 71.0909 44 139 71.0909 
44.9091 139 72 35 140 71.0909 34.0909 140 72 
37 140 71.0909 39 140 71.0909 40 140 71.0909 
41 140 71.0909 42 140 71.0909 43 140 71.0909 
44 140 71.0909 44.9091 140 72 35 141 71.0909 
34.0909 141 72 36 141 71.0909 37 141 71.0909 
38 141 71.0909 39 141 71.0909 40 141 71.0909 
41 141 71.0909 42 141 71.0909 43 141 71.0909 
43.9091 141 72 44 140.909 72 35 141.909 72 
36 141.909 72 37 141.909 72 38 141.909 72 
39 141.909 72 40 141.909 72 41 141.909 72 
42 141.909 72 43 141.909 72 37 135 72.0909 
37 134.091 73 36.0909 135 73 38 134.091 73 
38.9091 135 73 42 134.091 73 41.0909 135 73 
42.9091 135 73 36.0909 136 73 39 135.091 73 
40 135.091 73 41 135.091 73 43 135.091 73 
44 135.091 73 44.9091 136 73 36 136.091 73 
35.0909 137 73 44.9091 137 73 34 138 72.0909 
34 137.091 73 33.0909 138 73 35 137.091 73 
44.9091 138 73 34 139 72.0909 33.0909 139 73 
44.9091 139 73 34 140 72.0909 33.0909 140 73 
44.9091 140 73 34 140.909 73 34.0909 141 73 
43.9091 141 73 44 140.909 73 35 141.909 73 
36 141.909 73 37 141.909 73 38 141.909 73 
39 141.909 73 40 141.909 73 41 141.909 73 
42 141.909 73 43 141.909 73 37 135 73.9091 
38 135 73.9091 42 134.091 74 41.0909 135 74 
42.9091 135 74 37 135.091 74 36.0909 136 74 
38 135.091 74 39 135.091 74 40 135.091 74 
41 135.091 74 43 135.091 74 44 135.091 74 
45 136 73.0909 45 135.091 74 46 136 73.0909 
46 135.091 74 46.9091 136 74 36 136.091 74 
35.0909 137 74 45 137 73.0909 45.9091 137 74 
46 136.909 74 31 138 73.0909 31 137.091 74 
30.0909 138 74 32 138 73.0909 32 137.091 74 
33 138 73.0909 33 137.091 74 34 137.091 74 
35 137.091 74 44.9091 138 74 45 137.909 74 
31 139 73.0909 30.0909 139 74 32 139 73.0909 
33 139 73.0909 44.9091 139 74 31 140 73.0909 
30.0909 140 74 32 140 73.0909 33 140 73.0909 
44.9091 140 74 31 141 73.0909 30.0909 141 74 
32 141 73.0909 33 141 73.0909 34 141 73.0909 
43.9091 141 74 44 140.909 74 31 142 73.0909 
30.0909 142 74 32 142 73.0909 32.9091 142 74 
33 141.909 74 34 141.909 74 35 141.909 74 
36 141.909 74 37 141.909 74 38 141.909 74 
39 141.909 74 40 141.909 74 41 141.909 74 
42 141.909 74 43 141.909 74 31 143 73.0909 
30.0909 143 74 31.9091 143 74 32 142.909 74 
31 143.909 74 42 134 74.0909 42 133.091 75 
41.0909 134 75 42.9091 134 75 38 135 74.0909 
38 134.091 75 37.0909 135 75 39 135 74.0909 
39 134.091 75 40 135 74.0909 40 134.091 75 
41 135 74.0909 41 134.091 75 43 135 74.0909 
43 134.091 75 44 135 74.0909 44 134.091 75 
44.9091 135 75 36 136 74.0909 36 135.091 75 
35.0909 136 75 37 135.091 75 45 135.091 75 
46 135.091 75 46.9091 136 75 34 137 74.0909 
34 136.091 75 33.0909 137 75 35 137 74.0909 
35 136.091 75 45.9091 137 75 46 136.909 75 
30 138 74.0909 30 137.091 75 29.0909 138 75 
31 137.091 75 32 137.091 75 33 137.091 75 
44.9091 138 75 45 137.909 75 30 139 74.0909 
29.0909 139 75 44.9091 139 75 30 140 74.0909 
29.0909 140 75 44.9091 140 75 30 141 74.0909 
29.0909 141 75 43.9091 141 75 44 140.909 75 
30 142 74.0909 29.0909 142 75 32 142 74.9091 
31.9091 142 75 32 141.909 75 33 141.909 75 
34 141.909 75 35 141.909 75 36 141.909 75 
37 141.909 75 38 141.909 75 39 141.909 75 
40 141.909 75 41 141.909 75 42 141.909 75 
43 141.909 75 30 142.909 75 31 142.909 75 
31 143 74.9091 42 133 75.0909 42 132.091 76 
41.0909 133 76 42.9091 133 76 27 134 75.0909 
27 133.091 76 26.0909 134 76 28 134 75.0909 
28 133.091 76 28.9091 134 76 39 134 75.0909 
39 133.091 76 38.0909 134 76 40 134 75.0909 
40 133.091 76 41 134 75.0909 41 133.091 76 
43 134 75.0909 43 133.091 76 44 134 75.0909 
44 133.091 76 44.9091 134 76 27 135 75.0909 
26.0909 135 76 28 135 75.0909 28.9091 135 76 
38 134.091 76 37.0909 135 76 44.9091 135 76 
27 136 75.0909 26.0909 136 76 28 136 75.0909 
28.9091 136 76 35 136 75.0909 35 135.091 76 
34.0909 136 76 36 135.091 76 37 135.091 76 
45 135.091 76 46 135.091 76 46.9091 136 76 
27 137 75.0909 26.0909 137 76 28 137 75.0909 
28.9091 137 76 34 136.091 76 33.0909 137 76 
46 137 75.0909 46.9091 137 76 27 138 75.0909 
26.0909 138 76 28 138 75.0909 29 137.091 76 
29 138 75.0909 30 137.091 76 31 137.091 76 
32 137.091 76 33 137.091 76 45 138 75.0909 
46 138 75.0909 46.9091 138 76 27 139 75.0909 
26.0909 139 76 28 139 75.0909 29 139 75.0909 
45 139 75.0909 46 139 75.0909 46.9091 139 76 
27 139.909 76 28 139.909 76 28.0909 140 76 
29 140 75.0909 45 140 75.0909 46 140 75.0909 
46.9091 140 76 29 141 75.0909 28.0909 141 76 
44 141 75.0909 45 141 75.0909 45.9091 141 76 
46 140.909 76 29 142 75.0909 28.0909 142 76 
31 142 75.9091 30.9091 142 76 31 141.909 76 
32 141.909 76 33 141.909 76 34 141.909 76 
35 141.909 76 36 141.909 76 37 141.909 76 
38 141.909 76 39 141.909 76 40 141.909 76 
41 141.909 76 42 141.909 76 43 141.909 76 
44 141.909 76 45 141.909 76 29 143 75.0909 
28.0909 143 76 30 142.909 76 29.9091 143 76 
29 143.909 76 40 130 76.0909 40 129.091 77 
39.0909 130 77 40.9091 130 77 40 131 76.0909 
39.0909 131 77 41 130.091 77 41 131 76.0909 
41.9091 131 77 40 131.909 77 41 131.909 77 
42 131.091 77 41.0909 132 77 42 132 76.0909 
42.9091 132 77 27 133 76.0909 27 132.091 77 
26.0909 133 77 28 133 76.0909 28 132.091 77 
28.9091 133 77 38 133 76.0909 38 132.091 77 
37.0909 133 77 39 133 76.0909 39 132.091 77 
40 133 76.0909 40 132.091 77 41 133 76.0909 
41 132.091 77 43 133 76.0909 43 132.091 77 
43.9091 133 77 26.0909 134 77 28.9091 134 77 
38 134 76.0909 37.0909 134 77 44 133.091 77 
44.9091 134 77 26.0909 135 77 28.9091 135 77 
34 135 76.0909 34 134.091 77 33.0909 135 77 
35 135 76.0909 35 134.091 77 36 135 76.0909 
36 134.091 77 37 135 76.0909 37 134.091 77 
45 134.091 77 45 135 76.0909 46 135 76.0909 
46 134.091 77 46.9091 135 77 26.0909 136 77 
28.9091 136 77 34 136 76.0909 33.0909 136 77 
46.9091 136 77 26.0909 137 77 29 136.091 77 
29 137 76.0909 30 137 76.0909 30 136.091 77 
31 137 76.0909 31 136.091 77 32 137 76.0909 
32 136.091 77 33 137 76.0909 33 136.091 77 
46.9091 137 77 26.0909 138 77 46.9091 138 77 
26.0909 139 77 46.9091 139 77 27 139.909 77 
28 140 76.0909 27.0909 140 77 46.9091 140 77 
28 141 76.0909 27.0909 141 77 45.9091 141 77 
46 140.909 77 28 141.909 77 28.0909 142 77 
30.9091 142 77 31 141.909 77 32 141.909 77 
33 141.909 77 34 141.909 77 35 141.909 77 
36 141.909 77 37 141.909 77 38 141.909 77 
39 141.909 77 40 141.909 77 41 141.909 77 
42 141.909 77 43 141.909 77 44 141.909 77 
45 141.909 77 28.0909 143 77 29.9091 143 77 
30 142.909 77 29 143.909 77 37 130 77.0909 
37 129.091 78 36.0909 130 78 38 130 77.0909 
38 129.091 78 39 130 77.0909 39 129.091 78 
40 129.091 78 41 130 77.0909 41 129.091 78 
42 130 77.0909 42 129.091 78 42.9091 130 78 
36 131 77.0909 36 130.091 78 35.0909 131 78 
37 131 77.0909 38 131 77.0909 39 131 77.0909 
42 131 77.0909 42.9091 131 78 27 132 77.0909 
27 131.091 78 26.0909 132 78 28 132 77.0909 
28 131.091 78 29 132 77.0909 29 131.091 78 
30 132 77.0909 30 131.091 78 31 132 77.0909 
31 131.091 78 32 132 77.0909 32 131.091 78 
33 132 77.0909 33 131.091 78 34 132 77.0909 
34 131.091 78 35 132 77.0909 35 131.091 78 
36 132 77.0909 37 132 77.0909 38 132 77.0909 
39 132 77.0909 40 132 77.0909 41 132 77.0909 
43 132 77.0909 43 131.091 78 44 132 77.0909 
44 131.091 78 44.9091 132 78 26.0909 133 78 
29 133 77.0909 30 133 77.0909 31 133 77.0909 
32 133 77.0909 33 133 77.0909 34 133 77.0909 
35 133 77.0909 36 133 77.0909 37 133 77.0909 
44 133 77.0909 44.9091 133 78 26.0909 134 78 
29 134 77.0909 30 134 77.0909 31 134 77.0909 
32 134 77.0909 33 134 77.0909 34 134 77.0909 
35 134 77.0909 36 134 77.0909 37 134 77.0909 
45 134 77.0909 45 133.091 78 46 134 77.0909 
46 133.091 78 47 134 77.0909 47 133.091 78 
48 134 77.0909 48 133.091 78 48.9091 134 78 
26.0909 135 78 29 135 77.0909 30 135 77.0909 
31 135 77.0909 32 135 77.0909 33 135 77.0909 
47 135 77.0909 48 135 77.0909 48.9091 135 78 
26.0909 136 78 29 136 77.0909 30 136 77.0909 
31 136 77.0909 32 136 77.0909 33 136 77.0909 
47 136 77.0909 48 136 77.0909 48.9091 136 78 
26.0909 137 78 47 137 77.0909 48 137 77.0909 
48.9091 137 78 26.0909 138 78 47 138 77.0909 
48 138 77.0909 48.9091 138 78 26.0909 139 78 
47 139 77.0909 47.9091 139 78 48 138.909 78 
27 140 77.0909 26.0909 140 78 46.9091 140 78 
47 139.909 78 27 141 77.0909 26.0909 141 78 
45.9091 141 78 46 140.909 78 27 141.909 78 
28 141.909 78 28.0909 142 78 30.9091 142 78 
31 141.909 78 32 141.909 78 33 141.909 78 
34 141.909 78 35 141.909 78 36 141.909 78 
37 141.909 78 38 141.909 78 39 141.909 78 
40 141.909 78 41 141.909 78 42 141.909 78 
43 141.909 78 44 141.909 78 45 141.909 78 
28.0909 143 78 29.9091 143 78 30 142.909 78 
29 143.909 78 37 129.091 79 36.0909 130 79 
38 129.091 79 39 129.091 79 40 129.091 79 
[...]
POINT_DATA 4864
SCALARS scalars float
LOOKUP_TABLE default
1 1 1 1 1 1 1 1 1 
1 1 1 1 1 1 1 1 1 
1 1 1 1 1 1 1 1 1 
1 1 1 1 1 1 1 1 1 
1 1 1 1 1 1 1 1 1 
1 1 1 1 1 1 1 1 1 
1 1 1 1 1 1 1 1 1 
1 1 1 1 1 1 1 1 1 
1 1 1 1 1 1 1 1 1 
1 1 1 1 1 1 1 1 1 
1 1 1 1 1 1 1 1 1 
1 1 1 1 1 1 1 1 1 
1 1 1 1 1 1 1 1 1 
1 1 1 1 1 1 1 1 1 
1 1 1 1 1 1 1 1 1 
1 1 1 1 1 1 1 1 1 
1 1 1 1 1 1 1 1 1 
1 1 1 1 1 1 1 1 1 
1 1 1 1 1 1 1 1 1 
1 1 1 1 1 1 1 1 1 
1 1 1 1 1 1 1 1 1 
1 1 1 1 1 1 1 1 1 
1 1 1 1 1 1 1 1 1 
1 1 1 1 1 1 1 1 1 
1 1 1 1 1 1 1 1 1 
1 1 1 1 1 1 1 1 1 
1 1 1 1 1 1 1 1 1 
1 1 1 1 1 1 1 1 1 
1 1 1 1 1 1 1 1 1 
1 1 1 1 1 1 1 1 1 
1 1 1 1 1 1 1 1 1 
1 1 1 1 1 1 1 1 1 
1 1 1 1 1 1 1 1 1 
1 1 1 1 1 1 1 1 1 
1 1 1 1 1 1 1 1 1 
1 1 1 1 1 1 1 1 1 
1 1 1 1 1 1 1 1 1 
1 1 1 1 1 1 1 1 1 
1 1 1 1 1 1 1 1 1 
1 1 1 1 1 1 1 1 1 
1 1 1 1 1 1 1 1 1 
1 1 1 1 1 1 1 1 1 
1 1 1 1 1 1 1 1 1 
1 1 1 1 1 1 1 1 1 
1 1 1 1 1 1 1 1 1 
1 1 1 1 1 1 1 1 1 
1 1 1 1 1 1 1 1 1 
1 1 1 1 1 1 1 1 1 
1 1 1 1 1 1 1 1 1 
1 1 1 1 1 1 1 1 1 
1 1 1 1 1 1 1 1 1 
1 1 1 1 1 1 1 1 1 
1 1 1 1 1 1 1 1 1 
1 1 1 1 1 1 1 1 1 
1 1 1 1 1 1 1 1 1 
1 1 1 1 1 1 1 1 1 
1 1 1 1 1 1 1 1 1 
1 1 1 1 1 1 1 1 1 
1 1 1 1 1 1 1 1 1 
1 1 1 1 1 1 1 1 1 
1 1 1 1 1 1 1 1 1 
1 1 1 1 1 1 1 1 1 
1 1 1 1 1 1 1 1 1 
1 1 1 1 1 1 1 1 1 
1 1 1 1 1 1 1 1 1 
1 1 1 1 1 1 1 1 1 
1 1 1 1 1 1 1 1 1 
1 1 1 1 1 1 1 1 1 
1 1 1 1 1 1 1 1 1 
1 1 1 1 1 1 1 1 1 
1 1 1 1 1 1 1 1 1 
1 1 1 1 1 1 1 1 1 
1 1 1 1 1 1 1 1 1 
1 1 1 1 1 1 1 1 1 
1 1 1 1 1 1 1 1 1 
1 1 1 1 1 1 1 1 1 
1 1 1 1 1 1 1 1 1 
1 1 1 1 1 1 1 1 1 
1 1 1 1 1 1 1 1 1 
1 1 1 1 1 1 1 1 1 
1 1 1 1 1 1 1 1 1 
1 1 1 1 1 1 1 1 1 
1 1 1 1 1 1 1 1 1 
1 1 1 1 1 1 1 1 1 
1 1 1 1 1 1 1 1 1 
1 1 1 1 1 1 1 1 1 
1 1 1 1 1 1 1 1 1 
1 1 1 1 1 1 1 1 1 
1 1 1 1 1 1 1 1 1 
1 1 1 1 1 1 1 1 1 
1 1 1 1 1 1 1 1 1 
1 1 1 1 1 1 1 1 1 
1 1 1 1 1 1 1 1 1 
1 1 1 1 1 1 1 1 1 
1 1 1 1 1 1 1 1 1 
1 1 1 1 1 1 1 1 1 
1 1 1 1 1 1 1 1 1 
1 1 1 1 1 1 1 1 1 
1 1 1 1 1 1 1 1 1 
1 1 1 1 1 1 1 1 1 
1 1 1 1 1 1 1 1 1 
1 1 1 1 1 1 1 1 1 
1 1 1 1 1 1 1 1 1 
1 1 1 1 1 1 1 1 1 
1 1 1 1 1 1 1 1 1 
1 1 1 1 1 1 1 1 1 
1 1 1 1 1 1 1 1 1 
1 1 1 1 1 1 1 1 1 
1 1 1 1 1 1 1 1 1 
1 1 1 1 1 1 1 1 1 
1 1 1 1 1 1 1 1 1 
1 1 1 1 1 1 1 1 1 
1 1 1 1 1 1 1 1 1 
1 1 1 1 1 1 1 1 1 
1 1 1 1 1 1 1 1 1 
1 1 1 1 1 1 1 1 1 
1 1 1 1 1 1 1 1 1 
1 1 1 1 1 1 1 1 1 
1 1 1 1 1 1 1 1 1 
1 1 1 1 1 1 1 1 1 
1 1 1 1 1 1 1 1 1 
1 1 1 1 1 1 1 1 1 
1 1 1 1 1 1 1 1 1 
1 1 1 1 1 1 1 1 1 
1 1 1 1 1 1 1 1 1 
1 1 1 1 1 1 1 1 1 
1 1 1 1 1 1 1 1 1 
1 1 1 1 1 1 1 1 1 
1 1 1 1 1 1 1 1 1 
1 1 1 1 1 1 1 1 1 
1 1 1 1 1 1 1 1 1 
1 1 1 1 1 1 1 1 1 
1 1 1 1 1 1 1 1 1 
1 1 1 1 1 1 1 1 1 
1 1 1 1 1 1 1 1 1 
1 1 1 1 1 1 1 1 1 
1 1 1 1 1 1 1 1 1 
1 1 1 1 1 1 1 1 1 
1 1 1 1 1 1 1 1 1 
1 1 1 1 1 1 1 1 1 
1 1 1 1 1 1 1 1 1 
1 1 1 1 1 1 1 1 1 
1 1 1 1 1 1 1 1 1 
1 1 1 1 1 1 1 1 1 
1 1 1 1 1 1 1 1 1 
1 1 1 1 1 1 1 1 1 
1 1 1 1 1 1 1 1 1 
1 1 1 1 1 1 1 1 1 
1 1 1 1 1 1 1 1 1 
1 1 1 1 1 1 1 1 1 
1 1 1 1 1 1 1 1 1 
1 1 1 1 1 1 1 1 1 
1 1 1 1 1 1 1 1 1 
1 1 1 1 1 1 1 1 1 
1 1 1 1 1 1 1 1 1 
1 1 1 1 1 1 1 1 1 
1 1 1 1 1 1 1 1 1 
1 1 1 1 1 1 1 1 1 
1 1 1 1 1 1 1 1 1 
1 1 1 1 1 1 1 1 1 
1 1 1 1 1 1 1 1 1 
1 1 1 1 1 1 1 1 1 
1 1 1 1 1 1 1 1 1 
1 1 1 1 1 1 1 1 1 
1 1 1 1 1 1 1 1 1 
1 1 1 1 1 1 1 1 1 
1 1 1 1 1 1 1 1 1 
1 1 1 1 1 1 1 1 1 
1 1 1 1 1 1 1 1 1 
1 1 1 1 1 1 1 1 1 
1 1 1 1 1 1 1 1 1 
1 1 1 1 1 1 1 1 1 
1 1 1 1 1 1 1 1 1 
1 1 1 1 1 1 1 1 1 
1 1 1 1 1 1 1 1 1 
1 1 1 1 1 1 1 1 1 
1 1 1 1 1 1 1 1 1 
1 1 1 1 1 1 1 1 1 
1 1 1 1 1 1 1 1 1 
1 1 1 1 1 1 1 1 1 
1 1 1 1 1 1 1 1 1 
1 1 1 1 1 1 1 1 1 
1 1 1 1 1 1 1 1 1 
1 1 1 1 1 1 1 1 1 
1 1 1 1 1 1 1 1 1 
1 1 1 1 1 1 1 1 1 
1 1 1 1 1 1 1 1 1 
1 1 1 1 1 1 1 1 1 
1 1 1 1 1 1 1 1 1 
1 1 1 1 1 1 1 1 1 
1 1 1 1 1 1 1 1 1 
1 1 1 1 1 1 1 1 1 
1 1 1 1 1 1 1 1 1 
1 1 1 1 1 1 1 1 1 
1 1 1 1 1 1 1 1 1 
1 1 1 1 1 1 1 1 1 
1 1 1 1 1 1 1 1 1 
1 1 1 1 1 1 1 1 1 
1 1 1 1 1 1 1 1 1 
1 1 1 1 1 1 1 1 1 
1 1 1 1 1 1 1 1 1 
1 1 1 1 1 1 1 1 1 
1 1 1 1 1 1 1 1 1 
1 1 1 1 1 1 1 1 1 
1 1 1 1 1 1 1 1 1 
1 1 1 1 1 1 1 1 1 
1 1 1 1 1 1 1 1 1 
1 1 1 1 1 1 1 1 1 
1 1 1 1 1 1 1 1 1 
1 1 1 1 1 1 1 1 1 
1 1 1 1 1 1 1 1 1 
1 1 1 1 1 1 1 1 1 
1 1 1 1 1 1 1 1 1 
1 1 1 1 1 1 1 1 1 
1 1 1 1 1 1 1 1 1 
1 1 1 1 1 1 1 1 1 
1 1 1 1 1 1 1 1 1 
1 1 1 1 1 1 1 1 1 
1 1 1 1 1 1 1 1 1 
1 1 1 1 1 1 1 1 1 
1 1 1 1 1 1 1 1 1 
1 1 1 1 1 1 1 1 1 
1 1 1 1 1 1 1 1 1 
1 1 1 1 1 1 1 1 1 
1 1 1 1 1 1 1 1 1 
1 1 1 1 1 1 1 1 1 
1 1 1 1 1 1 1 1 1 
1 1 1 1 1 1 1 1 1 
1 1 1 1 1 1 1 1 1 
1 1 1 1 1 1 1 1 1 
1 1 1 1 1 1 1 1 1 
1 1 1 1 1 1 1 1 1 
1 1 1 1 1 1 1 1 1 
1 1 1 1 1 1 1 1 1 
1 1 1 1 1 1 1 1 1 
1 1 1 1 1 1 1 1 1 
1 1 1 1 1 1 1 1 1 
1 1 1 1 1 1 1 1 1 
1 1 1 1 1 1 1 1 1 
1 1 1 1 1 1 1 1 1 
1 1 1 1 1 1 1 1 1 
1 1 1 1 1 1 1 1 1 
1 1 1 1 1 1 1 1 1 
1 1 1 1 1 1 1 1 1 
1 1 1 1 1 1 1 1 1 
1 1 1 1 1 1 1 1 1 
1 1 1 1 1 1 1 1 1 
1 1 1 1 1 1 1 1 1 
1 1 1 1 1 1 1 1 1 
1 1 1 1 1 1 1 1 1 
1 1 1 1 1 1 1 1 1 
1 1 1 1 1 1 1 1 1 
1 1 1 1 1 1 1 1 1 
1 1 1 1 1 1 1 1 1 
1 1 1 1 1 1 1 1 1 
1 1 1 1 1 1 1 1 1 
1 1 1 1 1 1 1 1 1 
1 1 1 1 1 1 1 1 1 
1 1 1 1 1 1 1 1 1 
1 1 1 1 1 1 1 1 1 
1 1 1 1 1 1 1 1 1 
1 1 1 1 1 1 1 1 1 
1 1 1 1 1 1 1 1 1 
1 1 1 1 1 1 1 1 1 
1 1 1 1 1 1 1 1 1 
1 1 1 1 1 1 1 1 1 
1 1 1 1 1 1 1 1 1 
1 1 1 1 1 1 1 1 1 
1 1 1 1 1 1 1 1 1 
1 1 1 1 1 1 1 1 1 
1 1 1 1 1 1 1 1 1 
1 1 1 1 1 1 1 1 1 
1 1 1 1 1 1 1 1 1 
1 1 1 1 1 1 1 1 1 
1 1 1 1 1 1 1 1 1 
1 1 1 1 1 1 1 1 1 
1 1 1 1 1 1 1 1 1 
1 1 1 1 1 1 1 1 1 
1 1 1 1 1 1 1 1 1 
1 1 1 1 1 1 1 1 1 
1 1 1 1 1 1 1 1 1 
1 1 1 1 1 1 1 1 1 
1 1 1 1 1 1 1 1 1 
1 1 1 1 1 1 1 1 1 
1 1 1 1 1 1 1 1 1 
1 1 1 1 1 1 1 1 1 
1 1 1 1 1 1 1 1 1 
1 1 1 1 1 1 1 1 1 
1 1 1 1 1 1 1 1 1 
1 1 1 1 1 1 1 1 1 
1 1 1 1 1 1 1 1 1 
1 1 1 1 1 1 1 1 1 
1 1 1 1 1 1 1 1 1 
1 1 1 1 1 1 1 1 1 
1 1 1 1 1 1 1 1 1 
1 1 1 1 1 1 1 1 1 
1 1 1 1 1 1 1 1 1 
1 1 1 1 1 1 1 1 1 
1 1 1 1 1 1 1 1 1 
1 1 1 1 1 1 1 1 1 
1 1 1 1 1 1 1 1 1 
1 1 1 1 1 1 1 1 1 
1 1 1 1 1 1 1 1 1 
1 1 1 1 1 1 1 1 1 
1 1 1 1 1 1 1 1 1 
1 1 1 1 1 1 1 1 1 
1 1 1 1 1 1 1 1 1 
1 1 1 1 1 1 1 1 1 
1 1 1 1 1 1 1 1 1 
1 1 1 1 1 1 1 1 1 
1 1 1 1 1 1 1 1 1 
1 1 1 1 1 1 1 1 1 
1 1 1 1 1 1 1 1 1 
1 1 1 1 1 1 1 1 1 
1 1 1 1 1 1 1 1 1 
1 1 1 1 1 1 1 1 1 
1 1 1 1 1 1 1 1 1 
1 1 1 1 1 1 1 1 1 
1 1 1 1 1 1 1 1 1 
1 1 1 1 1 1 1 1 1 
1 1 1 1 1 1 1 1 1 
1 1 1 1 1 1 1 1 1 
1 1 1 1 1 1 1 1 1 
1 1 1 1 1 1 1 1 1 
1 1 1 1 1 1 1 1 1 
1 1 1 1 1 1 1 1 1 
1 1 1 1 1 1 1 1 1 
1 1 1 1 1 1 1 1 1 
1 1 1 1 1 1 1 1 1 
1 1 1 1 1 1 1 1 1 
1 1 1 1 1 1 1 1 1 
1 1 1 1 1 1 1 1 1 
1 1 1 1 1 1 1 1 1 
1 1 1 1 1 1 1 1 1 
1 1 1 1 1 1 1 1 1 
1 1 1 1 1 1 1 1 1 
1 1 1 1 1 1 1 1 1 
1 1 1 1 1 1 1 1 1 
1 1 1 1 1 1 1 1 1 
1 1 1 1 1 1 1 1 1 
1 1 1 1 1 1 1 1 1 
1 1 1 1 1 1 1 1 1 
1 1 1 1 1 1 1 1 1 
1 1 1 1 1 1 1 1 1 
1 1 1 1 1 1 1 1 1 
1 1 1 1 1 1 1 1 1 
1 1 1 1 1 1 1 1 1 
1 1 1 1 1 1 1 1 1 
1 1 1 1 1 1 1 1 1 
1 1 1 1 1 1 1 1 1 
1 1 1 1 1 1 1 1 1 
1 1 1 1 1 1 1 1 1 
1 1 1 1 1 1 1 1 1 
1 1 1 1 1 1 1 1 1 
1 1 1 1 1 1 1 1 1 
1 1 1 1 1 1 1 1 1 
1 1 1 1 1 1 1 1 1 
1 1 1 1 1 1 1 1 1 
1 1 1 1 1 1 1 1 1 
1 1 1 1 1 1 1 1 1 
1 1 1 1 1 1 1 1 1 
1 1 1 1 1 1 1 1 1 
1 1 1 1 1 1 1 1 1 
1 1 1 1 1 1 1 1 1 
1 1 1 1 1 1 1 1 1 
1 1 1 1 1 1 1 1 1 
1 1 1 1 1 1 1 1 1 
1 1 1 1 1 1 1 1 1 
1 1 1 1 1 1 1 1 1 
1 1 1 1 1 1 1 1 1 
1 1 1 1 1 1 1 1 1 
1 1 1 1 1 1 1 1 1 
1 1 1 1 1 1 1 1 1 
1 1 1 1 1 1 1 1 1 
1 1 1 1 1 1 1 1 1 
1 1 1 1 1 1 1 1 1 
1 1 1 1 1 1 1 1 1 
1 1 1 1 1 1 1 1 1 
1 1 1 1 1 1 1 1 1 
1 1 1 1 1 1 1 1 1 
1 1 1 1 1 1 1 1 1 
1 1 1 1 1 1 1 1 1 
1 1 1 1 1 1 1 1 1 
1 1 1 1 1 1 1 1 1 
1 1 1 1 1 1 1 1 1 
1 1 1 1 1 1 1 1 1 
1 1 1 1 1 1 1 1 1 
1 1 1 1 1 1 1 1 1 
1 1 1 1 1 1 1 1 1 
1 1 1 1 1 1 1 1 1 
1 1 1 1 1 1 1 1 1 
1 1 1 1 1 1 1 1 1 
1 1 1 1 1 1 1 1 1 
1 1 1 1 1 1 1 1 1 
1 1 1 1 1 1 1 1 1 
1 1 1 1 1 1 1 1 1 
1 1 1 1 1 1 1 1 1 
1 1 1 1 1 1 1 1 1 
1 1 1 1 1 1 1 1 1 
1 1 1 1 1 1 1 1 1 
1 1 1 1 1 1 1 1 1 
1 1 1 1 1 1 1 1 1 
1 1 1 1 1 1 1 1 1 
1 1 1 1 1 1 1 1 1 
1 1 1 1 1 1 1 1 1 
1 1 1 1 1 1 1 1 1 
1 1 1 1 1 1 1 1 1 
1 1 1 1 1 1 1 1 1 
1 1 1 1 1 1 1 1 1 
1 1 1 1 1 1 1 1 1 
1 1 1 1 1 1 1 1 1 
1 1 1 1 1 1 1 1 1 
1 1 1 1 1 1 1 1 1 
1 1 1 1 1 1 1 1 1 
1 1 1 1 1 1 1 1 1 
1 1 1 1 1 1 1 1 1 
1 1 1 1 1 1 1 1 1 
1 1 1 1 1 1 1 1 1 
1 1 1 1 1 1 1 1 1 
1 1 1 1 1 1 1 1 1 
1 1 1 1 1 1 1 1 1 
1 1 1 1 1 1 1 1 1 
1 1 1 1 1 1 1 1 1 
1 1 1 1 1 1 1 1 1 
1 1 1 1 1 1 1 1 1 
1 1 1 1 1 1 1 1 1 
1 1 1 1 1 1 1 1 1 
1 1 1 1 1 1 1 1 1 
1 1 1 1 1 1 1 1 1 
1 1 1 1 1 1 1 1 1 
1 1 1 1 1 1 1 1 1 
1 1 1 1 1 1 1 1 1 
1 1 1 1 1 1 1 1 1 
1 1 1 1 1 1 1 1 1 
1 1 1 1 1 1 1 1 1 
1 1 1 1 1 1 1 1 1 
1 1 1 1 1 1 1 1 1 
1 1 1 1 1 1 1 1 1 
1 1 1 1 1 1 1 1 1 
1 1 1 1 1 1 1 1 1 
1 1 1 1 1 1 1 1 1 
1 1 1 1 1 1 1 1 1 
1 1 1 1 1 1 1 1 1 
1 1 1 1 1 1 1 1 1 
1 1 1 1 1 1 1 1 1 
1 1 1 1 1 1 1 1 1 
1 1 1 1 1 1 1 1 1 
1 1 1 1 1 1 1 1 1 
1 1 1 1 1 1 1 1 1 
1 1 1 1 1 1 1 1 1 
1 1 1 1 1 1 1 1 1 
1 1 1 1 1 1 1 1 1 
1 1 1 1 1 1 1 1 1 
1 1 1 1 1 1 1 1 1 
1 1 1 1 1 1 1 1 1 
1 1 1 1 1 1 1 1 1 
1 1 1 1 1 1 1 1 1 
1 1 1 1 1 1 1 1 1 
1 1 1 1 1 1 1 1 1 
1 1 1 1 1 1 1 1 1 
1 1 1 1 1 1 1 1 1 
1 1 1 1 1 1 1 1 1 
1 1 1 1 1 1 1 1 1 
1 1 1 1 1 1 1 1 1 
1 1 1 1 1 1 1 1 1 
1 1 1 1 1 1 1 1 1 
1 1 1 1 1 1 1 1 1 
1 1 1 1 1 1 1 1 1 
1 1 1 1 1 1 1 1 1 
1 1 1 1 1 1 1 1 1 
1 1 1 1 1 1 1 1 1 
1 1 1 1 1 1 1 1 1 
1 1 1 1 1 1 1 1 1 
1 1 1 1 1 1 1 1 1 
1 1 1 1 1 1 1 1 1 
1 1 1 1 1 1 1 1 1 
1 1 1 1 1 1 1 1 1 
1 1 1 1 1 1 1 1 1 
1 1 1 1 1 1 1 1 1 
1 1 1 1 1 1 1 1 1 
1 1 1 1 1 1 1 1 1 
1 1 1 1 1 1 1 1 1 
1 1 1 1 1 1 1 1 1 
1 1 1 1 1 1 1 1 1 
1 1 1 1 1 1 1 1 1 
1 1 1 1 1 1 1 1 1 
1 1 1 1 1 1 1 1 1 
1 1 1 1 1 1 1 1 1 
1 1 1 1 1 1 1 1 1 
1 1 1 1 1 1 1 1 1 
1 1 1 1 1 1 1 1 1 
1 1 1 1 1 1 1 1 1 
1 1 1 1 1 1 1 1 1 
1 1 1 1 1 1 1 1 1 
1 1 1 1 1 1 1 1 1 
1 1 1 1 1 1 1 1 1 
1 1 1 1 1 1 1 1 1 
1 1 1 1 1 1 1 1 1 
1 1 1 1 1 1 1 1 1 
1 1 1 1 1 1 1 1 1 
1 1 1 1 1 1 1 1 1 
1 1 1 1 1 1 1 1 1 
1 1 1 1 1 1 1 1 1 
1 1 1 1 1 1 1 1 1 
1 1 1 1 1 1 1 1 1 
1 1 1 1 1 1 1 1 1 
1 1 1 1 1 1 1 1 1 
1 1 1 1 1 1 1 1 1 
1 1 1 1 1 1 1 1 1 
1 1 1 1 1 1 1 1 1 
1 1 1 1 1 1 1 1 1 
1 1 1 1 1 1 1 1 1 
1 1 1 1 1 1 1 1 1 
1 1 1 1 1 1 1 1 1 
1 1 1 1 1 1 1 1 1 
1 1 1 1 1 1 1 1 1 
1 1 1 1 1 1 1 1 1 
1 1 1 1 1 1 1 1 1 
1 1 1 1 1 1 1 1 1 
1 1 1 1 1 1 1 1 1 
1 1 1 1 1 1 1 1 1 
1 1 1 1 1 1 1 1 1 
1 1 1 1 1 1 1 1 1 
1 1 1 1 1 1 1 1 1 
1 1 1 1 1 1 1 1 1 
1 1 1 1 1 1 1 1 1 
1 1 1 1 1 1 1 1 1 
1 1 1 1 1 1 1 1 1 
1 1 1 1 1 1 1 1 1 
1 1 1 1 1 1 1 1 1 
1 1 1 1 1 1 1 1 1 
1 1 1 1 1 1 1 1 1 
1 1 1 1 1 1 1 1 1 
1 1 1 1 1 1 1 1 1 
1 1 1 1 1 1 1 1 1 
1 1 1 1 1 1 1 1 1 
1 1 1 1 1 1 1 1 1 
1 1 1 1 1 1 1 1 1 
1 1 1 1 1 1 1 1 1 
1 1 1 1 1 1 1 1 1 
1 1 1 1 
NORMALS normals float
0 -0.0905357 -0.995893 0 -0.707107 -0.707107 -0.671156 -0.0671156 -0.738272 
0.671156 -0.0671156 -0.738272 0 0 -1 -0.672673 0 -0.73994 
0.672673 0 -0.73994 0 0 -1 -0.558146 -0.558146 -0.61396 
0.672673 0 -0.73994 -0.0905357 0 -0.995893 -0.0671156 -0.671156 -0.738272 
-0.995893 0 -0.0905357 0.090167 -0.090167 -0.991837 0.06415 -0.70565 -0.70565 
0.090167 -0.090167 -0.991837 -0.090167 -0.090167 -0.991837 -0.06415 -0.70565 -0.70565 
-0.090167 -0.090167 -0.991837 0 0 -1 0 -0.672673 -0.73994 
0 0 -1 0 -0.672673 -0.73994 0 0 -1 
-0.558146 -0.558146 -0.61396 0.090167 0.090167 -0.991837 0.70565 0.06415 -0.70565 
-0.594812 0.540738 -0.594812 -0.540738 0.594812 -0.594812 0 0.0905357 -0.995893 
0 0.0905357 -0.995893 0 0.0905357 -0.995893 0 0.0905357 -0.995893 
0.540738 0.594812 -0.594812 0.558146 0.558146 -0.61396 0 0.672673 -0.73994 
0 0.672673 -0.73994 0.06415 0.70565 -0.70565 0 0.707107 -0.707107 
0 0.707107 -0.707107 0 -0.0905357 -0.995893 0 -0.995893 -0.0905357 
-0.540738 -0.594812 -0.594812 0.671156 -0.738272 -0.0671156 0 -0.707107 -0.707107 
0 -0.995893 -0.0905357 -0.671156 -0.738272 -0.0671156 0.671156 -0.738272 -0.0671156 
-0.090167 -0.090167 -0.991837 -0.57735 -0.57735 -0.57735 -0.70565 -0.70565 -0.06415 
0 0 -1 0.671156 -0.738272 -0.0671156 0 -0.0905357 -0.995893 
0 -0.0905357 -0.995893 0 -0.995893 -0.0905357 -0.671156 -0.0671156 -0.738272 
-0.671156 -0.738272 -0.0671156 0.671156 -0.0671156 -0.738272 0.671156 -0.738272 -0.0671156 
0.090167 -0.090167 -0.991837 0.090167 -0.991837 -0.090167 0.991837 -0.090167 -0.090167 
-0.090167 -0.090167 -0.991837 -0.70565 -0.70565 -0.06415 -0.70565 -0.70565 -0.06415 
0 0 -1 0 0 -1 0 0 -1 
0 0 -1 -0.672673 0 -0.73994 0.672673 0 -0.73994 
0.0905357 0 -0.995893 0.995893 0 -0.0905357 -0.06415 -0.70565 -0.70565 
-0.70565 -0.70565 -0.06415 -0.70565 -0.06415 -0.70565 0 -0.672673 -0.73994 
0 0 -1 0 -0.672673 -0.73994 0 -0.672673 -0.73994 
0 -0.672673 -0.73994 -0.558146 -0.558146 -0.61396 0.672673 0 -0.73994 
0.0905357 0 -0.995893 0.995893 0 -0.0905357 -0.73994 0 -0.672673 
0 0 -1 0.672673 0 -0.73994 0.0905357 0 -0.995893 
0.995893 0 -0.0905357 -0.594812 0.540738 -0.594812 -0.707107 0 -0.707107 
0 0 -1 0.558146 0.558146 -0.61396 0 0.672673 -0.73994 
0 0.672673 -0.73994 0 0.672673 -0.73994 0 0 -1 
0.090167 0.090167 -0.991837 0.991837 0.090167 -0.090167 -0.090167 0.090167 -0.991837 
-0.991837 0.090167 -0.090167 0 0.707107 -0.707107 0 0.0905357 -0.995893 
0 0.707107 -0.707107 0 0.0905357 -0.995893 0 0.0905357 -0.995893 
0 0.0905357 -0.995893 0 0.0905357 -0.995893 0.090167 0.090167 -0.991837 
0.70565 0.70565 -0.06415 0.70565 0.70565 -0.06415 -0.090167 0.991837 -0.090167 
0 0.995893 -0.0905357 0 0.995893 -0.0905357 0 0.995893 -0.0905357 
0 0.995893 -0.0905357 0 0.995893 -0.0905357 0 0.995893 -0.0905357 
0 0.995893 -0.0905357 0.090167 0.991837 -0.090167 -0.594812 -0.594812 -0.540738 
-0.0905357 -0.995893 0 -0.995893 -0.0905357 0 0.090167 -0.991837 0.090167 
0.70565 -0.70565 0.06415 0 -1 0 -0.672673 -0.73994 0 
0.672673 -0.73994 0 -0.73994 -0.672673 0 0.672673 -0.73994 0 
0 -1 0 -0.672673 -0.73994 0 0.672673 -0.73994 0 
0.0905357 -0.995893 0 0.738272 -0.0671156 -0.671156 -0.707107 -0.707107 0 
-0.707107 -0.707107 0 0.73994 0 -0.672673 -0.70565 -0.06415 -0.70565 
-0.090167 -0.991837 -0.090167 -0.70565 -0.06415 -0.70565 -0.672673 -0.73994 0 
1 0 0 -0.707107 0 -0.707107 -0.707107 0 -0.707107 
1 0 0 -0.70565 0.06415 -0.70565 -0.70565 0.06415 -0.70565 
0.995893 0.0905357 0 -0.57735 0.57735 -0.57735 -0.594812 0.594812 -0.540738 
0.707107 0.707107 0 0.707107 0.707107 0 -0.0905357 0.995893 0 
0 1 0 0 1 0 0 1 0 
0 1 0 0 1 0 0 1 0 
0 1 0 0.0905357 0.995893 0 -0.0671156 -0.738272 0.671156 
0.090167 -0.991837 0.090167 0 -0.73994 -0.672673 -0.558146 -0.61396 -0.558146 
0.558146 -0.61396 -0.558146 -0.0671156 -0.738272 0.671156 -0.594812 -0.594812 -0.540738 
0 -1 0 0 -0.73994 -0.672673 0 -0.73994 -0.672673 
-0.558146 -0.61396 -0.558146 0.558146 -0.61396 -0.558146 0 -0.73994 -0.672673 
0.671156 -0.0671156 -0.738272 0 -0.995893 -0.0905357 0.0905357 0 -0.995893 
0.0990148 -0.990148 -0.0990148 0.995893 0 -0.0905357 -0.594812 -0.594812 -0.540738 
-0.594812 -0.594812 -0.540738 0.70565 0.06415 -0.70565 0.70565 0.70565 -0.06415 
0.738272 0.671156 -0.0671156 -0.090167 -0.090167 -0.991837 -0.090167 -0.991837 -0.090167 
-0.70565 -0.06415 -0.70565 0 -0.0905357 -0.995893 0 -0.995893 -0.0905357 
-0.671156 -0.0671156 -0.738272 0 -0.995893 -0.0905357 0 -0.73994 -0.672673 
-0.558146 -0.61396 -0.558146 0.73994 0.672673 0 0.70565 0.70565 -0.06415 
-0.0905357 0 -0.995893 -0.707107 0 -0.707107 0 0 -1 
-0.672673 0 -0.73994 1 0 0 -0.0905357 0 -0.995893 
-0.707107 0 -0.707107 0 0 -1 -0.672673 0 -0.73994 
0.995893 0.0905357 0 -0.0905357 0 -0.995893 -0.707107 0 -0.707107 
0 0 -1 0 0.0905357 -0.995893 -0.540738 0.594812 -0.594812 
0.707107 0.707107 0 0.707107 0.707107 0 -0.0905357 0 -0.995893 
-0.707107 0 -0.707107 0.0990148 0.0990148 -0.990148 0.707107 0.707107 0 
0.671156 0.738272 -0.0671156 0 0.995893 -0.0905357 0 1 0 
0 1 0 0 1 0 0 1 0 
0 1 0 0 1 0 0 1 0 
0 1 0 0.0905357 0.995893 0 0 0.0995037 -0.995037 
-0.995037 0.0995037 0 0.672673 0.73994 0 0.707107 0.707107 0 
0 1 0 0 -0.707107 -0.707107 0 -0.707107 -0.707107 
-0.540738 -0.594812 -0.594812 0.540738 -0.594812 -0.594812 -0.090167 -0.991837 -0.090167 
-0.090167 -0.991837 -0.090167 -0.70565 -0.70565 -0.06415 0 -0.707107 -0.707107 
0 -0.707107 -0.707107 0 -0.707107 -0.707107 0 -0.707107 -0.707107 
-0.540738 -0.594812 -0.594812 -0.540738 -0.594812 -0.594812 0.540738 -0.594812 -0.594812 
0.540738 -0.594812 -0.594812 0.06415 -0.70565 -0.70565 0.06415 -0.70565 -0.70565 
0.70565 -0.70565 -0.06415 -0.57735 -0.57735 -0.57735 -0.090167 -0.991837 -0.090167 
-0.57735 -0.57735 -0.57735 -0.672673 -0.73994 0 0.672673 -0.73994 0 
0.0995037 -0.995037 0 1 0 0 -0.06415 -0.70565 -0.70565 
-0.090167 -0.991837 -0.090167 -0.70565 -0.70565 -0.06415 -0.540738 -0.594812 -0.594812 
-0.540738 -0.594812 -0.594812 0.594812 0.594812 -0.540738 0.61396 0.558146 -0.558146 
-0.70565 -0.06415 -0.70565 -0.090167 -0.991837 -0.090167 -0.70565 -0.06415 -0.70565 
0 -1 0 0 -1 0 -0.672673 -0.73994 0 
0.61396 0.558146 -0.558146 0.594812 0.594812 -0.540738 -0.707107 0 -0.707107 
-0.707107 0 -0.707107 0.73994 0 -0.672673 -0.707107 0 -0.707107 
-0.707107 0 -0.707107 0.738272 0.0671156 -0.671156 -0.707107 0 -0.707107 
-0.707107 0 -0.707107 0.594812 0.594812 -0.540738 0.594812 0.594812 -0.540738 
-0.70565 0.06415 -0.70565 -0.70565 0.06415 -0.70565 0.594812 0.594812 0.540738 
0.57735 0.57735 0.57735 0.558146 0.61396 0.558146 0 1 0 
0 1 0 0 1 0 0 1 0 
0 1 0 0 1 0 0 1 0 
0 1 0 0 1 0 0 1 0 
0.0905357 0.995893 0 -0.090167 0.991837 -0.090167 0.06415 0.70565 0.70565 
0 0.73994 0.672673 0 -0.707107 -0.707107 0 -0.707107 -0.707107 
-0.540738 -0.594812 -0.594812 0.540738 -0.594812 -0.594812 -0.090167 -0.090167 -0.991837 
-0.06415 -0.70565 -0.70565 -0.991837 -0.090167 -0.090167 0.090167 -0.090167 -0.991837 
0.06415 -0.70565 -0.70565 0.991837 -0.090167 -0.090167 -0.06415 -0.70565 -0.70565 
-0.06415 -0.70565 -0.70565 -0.57735 -0.57735 -0.57735 0 -0.707107 -0.707107 
0 -0.707107 -0.707107 -0.540738 -0.594812 -0.594812 -0.540738 -0.594812 -0.594812 
0.540738 -0.594812 -0.594812 0.540738 -0.594812 -0.594812 0.06415 -0.70565 -0.70565 
0.090167 -0.991837 -0.090167 0.991837 -0.090167 -0.090167 -0.0905357 0 -0.995893 
-0.995893 0 -0.0905357 0.0905357 0 -0.995893 0.995893 0 -0.0905357 
-0.594812 -0.594812 -0.540738 -0.594812 -0.594812 -0.540738 0.61396 -0.558146 -0.558146 
-0.0905357 0 -0.995893 -0.995893 0 -0.0905357 0.0905357 0 -0.995893 
0.995893 0 -0.0905357 -0.57735 -0.57735 -0.57735 -0.06415 -0.70565 -0.70565 
-0.57735 -0.57735 -0.57735 0 -0.73994 -0.672673 -0.558146 -0.61396 -0.558146 
0.558146 -0.61396 -0.558146 0.0671156 -0.738272 -0.671156 0.995893 -0.0905357 0 
-0.0905357 0 -0.995893 -0.995893 0 -0.0905357 0.0905357 0 -0.995893 
0.594812 -0.540738 -0.594812 -0.594812 -0.594812 -0.540738 -0.594812 -0.594812 -0.540738 
0.594812 0.540738 -0.594812 0.995893 0 -0.0905357 -0.0905357 0 -0.995893 
-0.995893 0 -0.0905357 0 0 -1 0.540738 -0.594812 -0.594812 
-0.671156 -0.0671156 -0.738272 0 -0.73994 -0.672673 0 -0.73994 -0.672673 
0 -0.73994 -0.672673 -0.558146 -0.61396 -0.558146 0.558146 0.558146 -0.61396 
0.0905357 0 -0.995893 0.995893 0 -0.0905357 -0.090167 0.090167 -0.991837 
-0.991837 0.090167 -0.090167 0 0.0905357 -0.995893 -0.672673 0 -0.73994 
0.672673 0 -0.73994 0.0905357 0 -0.995893 0.995893 0 -0.0905357 
-0.090167 0.991837 -0.090167 -0.540738 0.594812 -0.594812 -0.594812 0.540738 -0.594812 
-0.707107 0 -0.707107 0.672673 0 -0.73994 0.090167 0.090167 -0.991837 
0.991837 0.090167 -0.090167 -0.707107 0 -0.707107 -0.707107 0 -0.707107 
0.540738 0.594812 -0.594812 0.090167 0.090167 -0.991837 0.70565 0.70565 -0.06415 
0.70565 0.70565 -0.06415 -0.707107 0 -0.707107 -0.995893 0 -0.0905357 
0.57735 0.57735 0.57735 0.594812 0.594812 0.540738 0.558146 0.61396 0.558146 
0 1 0 0 1 0 0 1 0 
0 1 0 0 1 0 0 1 0 
0 1 0 0 1 0 0 1 0 
0 1 0 0 1 0 0 1 0 
0 0.995893 -0.0905357 0.090167 0.991837 -0.090167 0 0.0905357 -0.995893 
-0.990148 0.0990148 -0.0990148 0.707107 0.707107 0 0.671156 0.738272 -0.0671156 
0 0.995893 -0.0905357 0 -0.0905357 -0.995893 0 -0.995893 -0.0905357 
-0.671156 -0.0671156 -0.738272 0.540738 -0.594812 -0.594812 -0.090167 0.090167 -0.991837 
-0.70565 0.06415 -0.70565 0.594812 -0.540738 -0.594812 0.0905357 0 -0.995893 
0.594812 -0.540738 -0.594812 -0.090167 0.090167 -0.991837 -0.633238 0 -0.773957 
0.540738 -0.594812 -0.594812 -0.671156 -0.0671156 -0.738272 0 -0.707107 -0.707107 
0.540738 -0.594812 -0.594812 -0.06415 -0.70565 -0.70565 -0.06415 -0.70565 -0.70565 