# vtk DataFile Version 3.0
vtk output
ASCII
DATASET POLYDATA
POINTS 6736 float
150 148 68.0714 150 147.071 69 149.071 148 69 
150.929 148 69 150 149 68.0714 149.071 149 69 
150.929 149 69 150 150 68.0714 149.071 150 69 
150.929 150 69 150 151 68.0714 149.071 151 69 
150.929 151 69 150 152 68.0714 149.071 152 69 
150.929 152 69 150 153 68.0714 149.071 153 69 
150.929 153 69 150 154 68.0714 149.071 154 69 
150.929 154 69 150 155 68.0714 149.071 155 69 
150.929 155 69 150 155.929 69 146 169 68.0714 
146 168.071 69 145.071 169 69 147 169 68.0714 
147 168.071 69 147.929 169 69 146 170 68.0714 
145.071 170 69 146.929 170 69 147 169.929 69 
146 171 68.0714 145.071 171 69 146.929 171 69 
146 172 68.0714 145.071 172 69 146.929 172 69 
144 173 68.0714 144 172.071 69 143.071 173 69 
145 173 68.0714 145 172.071 69 146 172.929 69 
145.929 173 69 144 174 68.0714 143.071 174 69 
144.929 174 69 145 173.929 69 142 175 68.0714 
142 174.071 69 141.071 175 69 143 175 68.0714 
143 174.071 69 144 174.929 69 143.929 175 69 
142 176 68.0714 141.071 176 69 142.929 176 69 
143 175.929 69 142 176.929 69 150 147 69.0714 
150 146.071 70 149.071 147 70 150.929 147 70 
137 148 69.0714 137 147.071 70 136.071 148 70 
138 148 69.0714 138 147.071 70 139 148 69.0714 
139 147.071 70 140 148 69.0714 140 147.071 70 
141 148 69.0714 141 147.071 70 142 148 69.0714 
142 147.071 70 143 148 69.0714 143 147.071 70 
144 148 69.0714 144 147.071 70 145 148 69.0714 
145 147.071 70 146 148 69.0714 146 147.071 70 
147 148 69.0714 147 147.071 70 148 148 69.0714 
148 147.071 70 149 148 69.0714 149 147.071 70 
151 148 69.0714 151 147.071 70 152 148 69.0714 
152 147.071 70 152.929 148 70 136 149 69.0714 
136 148.071 70 135.071 149 70 137 149 69.0714 
138 149 69.0714 139 149 69.0714 140 149 69.0714 
141 149 69.0714 142 149 69.0714 143 149 69.0714 
144 149 69.0714 145 149 69.0714 146 149 69.0714 
147 149 69.0714 148 149 69.0714 149 149 69.0714 
151 149 69.0714 152 149 69.0714 152.929 149 70 
135 150 69.0714 135 149.071 70 134.071 150 70 
136 150 69.0714 137 150 69.0714 138 150 69.0714 
139 150 69.0714 140 150 69.0714 141 150 69.0714 
142 150 69.0714 143 150 69.0714 144 150 69.0714 
145 150 69.0714 146 150 69.0714 147 150 69.0714 
148 150 69.0714 149 150 69.0714 151 150 69.0714 
152 150 69.0714 152.929 150 70 134 151 69.0714 
134 150.071 70 133.071 151 70 135 151 69.0714 
136 151 69.0714 137 151 69.0714 138 151 69.0714 
139 151 69.0714 140 151 69.0714 141 151 69.0714 
142 151 69.0714 143 151 69.0714 144 151 69.0714 
145 151 69.0714 146 151 69.0714 147 151 69.0714 
148 151 69.0714 149 151 69.0714 151 151 69.0714 
152 151 69.0714 152.929 151 70 133 152 69.0714 
133 151.071 70 132.071 152 70 134 152 69.0714 
135 152 69.0714 136 152 69.0714 137 152 69.0714 
138 152 69.0714 139 152 69.0714 140 152 69.0714 
141 152 69.0714 142 152 69.0714 143 152 69.0714 
144 152 69.0714 145 152 69.0714 146 152 69.0714 
147 152 69.0714 148 152 69.0714 149 152 69.0714 
151 152 69.0714 152 152 69.0714 152.929 152 70 
132 153 69.0714 132 152.071 70 131.071 153 70 
133 153 69.0714 134 153 69.0714 135 153 69.0714 
136 153 69.0714 137 153 69.0714 138 153 69.0714 
139 153 69.0714 140 153 69.0714 141 153 69.0714 
142 153 69.0714 143 153 69.0714 144 153 69.0714 
145 153 69.0714 146 153 69.0714 147 153 69.0714 
148 153 69.0714 149 153 69.0714 151 153 69.0714 
152 153 69.0714 152.929 153 70 132 153.929 70 
132.071 154 70 133 154 69.0714 134 154 69.0714 
135 154 69.0714 136 154 69.0714 137 154 69.0714 
138 154 69.0714 139 154 69.0714 140 154 69.0714 
141 154 69.0714 142 154 69.0714 143 154 69.0714 
144 154 69.0714 145 154 69.0714 146 154 69.0714 
147 154 69.0714 148 154 69.0714 149 154 69.0714 
151 154 69.0714 152 154 69.0714 152.929 154 70 
132 155 69.0714 132 154.071 70 131.071 155 70 
133 155 69.0714 134 155 69.0714 135 155 69.0714 
136 155 69.0714 137 155 69.0714 138 155 69.0714 
139 155 69.0714 140 155 69.0714 141 155 69.0714 
142 155 69.0714 143 155 69.0714 144 155 69.0714 
145 155 69.0714 146 155 69.0714 147 155 69.0714 
148 155 69.0714 149 155 69.0714 151 155 69.0714 
151.929 155 70 152 154.929 70 131 156 69.0714 
131 155.071 70 130.071 156 70 132 156 69.0714 
133 156 69.0714 134 156 69.0714 135 156 69.0714 
136 156 69.0714 137 156 69.0714 138 156 69.0714 
139 156 69.0714 140 156 69.0714 141 156 69.0714 
142 156 69.0714 143 156 69.0714 144 156 69.0714 
145 156 69.0714 146 156 69.0714 147 156 69.0714 
148 156 69.0714 149 156 69.0714 150 156 69.0714 
150.929 156 70 151 155.929 70 131 157 69.0714 
130.071 157 70 132 157 69.0714 133 157 69.0714 
134 157 69.0714 135 157 69.0714 136 157 69.0714 
137 157 69.0714 138 157 69.0714 139 157 69.0714 
140 157 69.0714 141 157 69.0714 142 157 69.0714 
143 157 69.0714 144 157 69.0714 145 157 69.0714 
146 157 69.0714 147 157 69.0714 148 157 69.0714 
149 157 69.0714 150 157 69.0714 150.929 157 70 
131 158 69.0714 130.071 158 70 132 158 69.0714 
133 158 69.0714 134 158 69.0714 135 158 69.0714 
136 158 69.0714 137 158 69.0714 138 158 69.0714 
139 158 69.0714 140 158 69.0714 141 158 69.0714 
142 158 69.0714 143 158 69.0714 144 158 69.0714 
145 158 69.0714 146 158 69.0714 147 158 69.0714 
148 158 69.0714 149 158 69.0714 150 158 69.0714 
150.929 158 70 130 159 69.0714 130 158.071 70 
129.071 159 70 131 159 69.0714 132 159 69.0714 
133 159 69.0714 134 159 69.0714 135 159 69.0714 
136 159 69.0714 137 159 69.0714 138 159 69.0714 
139 159 69.0714 140 159 69.0714 141 159 69.0714 
142 159 69.0714 143 159 69.0714 144 159 69.0714 
145 159 69.0714 146 159 69.0714 147 159 69.0714 
148 159 69.0714 149 159 69.0714 150 159 69.0714 
150.929 159 70 129 160 69.0714 129 159.071 70 
128.071 160 70 130 160 69.0714 131 160 69.0714 
132 160 69.0714 133 160 69.0714 134 160 69.0714 
135 160 69.0714 136 160 69.0714 137 160 69.0714 
138 160 69.0714 139 160 69.0714 140 160 69.0714 
141 160 69.0714 142 160 69.0714 143 160 69.0714 
144 160 69.0714 145 160 69.0714 146 160 69.0714 
147 160 69.0714 148 160 69.0714 149 160 69.0714 
150 160 69.0714 150.929 160 70 129 161 69.0714 
128.071 161 70 130 161 69.0714 131 161 69.0714 
132 161 69.0714 133 161 69.0714 134 161 69.0714 
135 161 69.0714 136 161 69.0714 137 161 69.0714 
138 161 69.0714 139 161 69.0714 140 161 69.0714 
141 161 69.0714 142 161 69.0714 143 161 69.0714 
144 161 69.0714 145 161 69.0714 146 161 69.0714 
147 161 69.0714 148 161 69.0714 149 161 69.0714 
150 161 69.0714 150.929 161 70 129 162 69.0714 
128.071 162 70 130 162 69.0714 131 162 69.0714 
132 162 69.0714 133 162 69.0714 134 162 69.0714 
135 162 69.0714 136 162 69.0714 137 162 69.0714 
138 162 69.0714 139 162 69.0714 140 162 69.0714 
141 162 69.0714 142 162 69.0714 143 162 69.0714 
144 162 69.0714 145 162 69.0714 146 162 69.0714 
147 162 69.0714 148 162 69.0714 149 162 69.0714 
150 162 69.0714 150.929 162 70 129 163 69.0714 
128.071 163 70 130 163 69.0714 131 163 69.0714 
132 163 69.0714 133 163 69.0714 134 163 69.0714 
135 163 69.0714 136 163 69.0714 137 163 69.0714 
138 163 69.0714 139 163 69.0714 140 163 69.0714 
141 163 69.0714 142 163 69.0714 143 163 69.0714 
144 163 69.0714 145 163 69.0714 146 163 69.0714 
147 163 69.0714 148 163 69.0714 149 163 69.0714 
150 163 69.0714 150.929 163 70 129 164 69.0714 
128.071 164 70 130 164 69.0714 131 164 69.0714 
132 164 69.0714 133 164 69.0714 134 164 69.0714 
135 164 69.0714 136 164 69.0714 137 164 69.0714 
138 164 69.0714 139 164 69.0714 140 164 69.0714 
141 164 69.0714 142 164 69.0714 143 164 69.0714 
144 164 69.0714 145 164 69.0714 146 164 69.0714 
147 164 69.0714 148 164 69.0714 149 164 69.0714 
150 164 69.0714 150.929 164 70 128 165 69.0714 
128 164.071 70 127.071 165 70 129 165 69.0714 
130 165 69.0714 131 165 69.0714 132 165 69.0714 
133 165 69.0714 134 165 69.0714 135 165 69.0714 
136 165 69.0714 137 165 69.0714 138 165 69.0714 
139 165 69.0714 140 165 69.0714 141 165 69.0714 
142 165 69.0714 143 165 69.0714 144 165 69.0714 
145 165 69.0714 146 165 69.0714 147 165 69.0714 
148 165 69.0714 149 165 69.0714 150 165 69.0714 
150.929 165 70 128 165.929 70 128.071 166 70 
129 166 69.0714 130 166 69.0714 131 166 69.0714 
132 166 69.0714 133 166 69.0714 134 166 69.0714 
135 166 69.0714 136 166 69.0714 137 166 69.0714 
138 166 69.0714 139 166 69.0714 140 166 69.0714 
141 166 69.0714 142 166 69.0714 143 166 69.0714 
144 166 69.0714 145 166 69.0714 146 166 69.0714 
147 166 69.0714 148 166 69.0714 149 166 69.0714 
150 166 69.0714 150.929 166 70 129 167 69.0714 
128.071 167 70 130 167 69.0714 131 167 69.0714 
132 167 69.0714 133 167 69.0714 134 167 69.0714 
135 167 69.0714 136 167 69.0714 137 167 69.0714 
138 167 69.0714 139 167 69.0714 140 167 69.0714 
141 167 69.0714 142 167 69.0714 143 167 69.0714 
144 167 69.0714 145 167 69.0714 146 167 69.0714 
147 167 69.0714 148 167 69.0714 149 167 69.0714 
149.929 167 70 150 166.929 70 129 168 69.0714 
128.071 168 70 130 168 69.0714 131 168 69.0714 
132 168 69.0714 133 168 69.0714 134 168 69.0714 
135 168 69.0714 136 168 69.0714 137 168 69.0714 
138 168 69.0714 139 168 69.0714 140 168 69.0714 
141 168 69.0714 142 168 69.0714 143 168 69.0714 
144 168 69.0714 145 168 69.0714 146 168 69.0714 
147 168 69.0714 148 168 69.0714 148.929 168 70 
149 167.929 70 129 169 69.0714 128.071 169 70 
130 169 69.0714 131 169 69.0714 132 169 69.0714 
133 169 69.0714 134 169 69.0714 135 169 69.0714 
136 169 69.0714 137 169 69.0714 138 169 69.0714 
139 169 69.0714 140 169 69.0714 141 169 69.0714 
142 169 69.0714 143 169 69.0714 144 169 69.0714 
145 169 69.0714 148 169 69.0714 148.929 169 70 
129 169.929 70 130 169.929 70 130.071 170 70 
131 170 69.0714 132 170 69.0714 133 170 69.0714 
134 170 69.0714 135 170 69.0714 136 170 69.0714 
137 170 69.0714 138 170 69.0714 139 170 69.0714 
140 170 69.0714 141 170 69.0714 142 170 69.0714 
143 170 69.0714 144 170 69.0714 145 170 69.0714 
147 170 69.0714 148 170 69.0714 148.929 170 70 
131 171 69.0714 130.071 171 70 132 171 69.0714 
133 171 69.0714 134 171 69.0714 135 171 69.0714 
136 171 69.0714 137 171 69.0714 138 171 69.0714 
139 171 69.0714 140 171 69.0714 141 171 69.0714 
[...]
POINT_DATA 6736
SCALARS scalars float
LOOKUP_TABLE default
1 1 1 1 1 1 1 1 1 
1 1 1 1 1 1 1 1 1 
1 1 1 1 1 1 1 1 1 
1 1 1 1 1 1 1 1 1 
1 1 1 1 1 1 1 1 1 
1 1 1 1 1 1 1 1 1 
1 1 1 1 1 1 1 1 1 
1 1 1 1 1 1 1 1 1 
1 1 1 1 1 1 1 1 1 
1 1 1 1 1 1 1 1 1 
1 1 1 1 1 1 1 1 1 
1 1 1 1 1 1 1 1 1 
1 1 1 1 1 1 1 1 1 
1 1 1 1 1 1 1 1 1 
1 1 1 1 1 1 1 1 1 
1 1 1 1 1 1 1 1 1 
1 1 1 1 1 1 1 1 1 
1 1 1 1 1 1 1 1 1 
1 1 1 1 1 1 1 1 1 
1 1 1 1 1 1 1 1 1 
1 1 1 1 1 1 1 1 1 
1 1 1 1 1 1 1 1 1 
1 1 1 1 1 1 1 1 1 
1 1 1 1 1 1 1 1 1 
1 1 1 1 1 1 1 1 1 
1 1 1 1 1 1 1 1 1 
1 1 1 1 1 1 1 1 1 
1 1 1 1 1 1 1 1 1 
1 1 1 1 1 1 1 1 1 
1 1 1 1 1 1 1 1 1 
1 1 1 1 1 1 1 1 1 
1 1 1 1 1 1 1 1 1 
1 1 1 1 1 1 1 1 1 
1 1 1 1 1 1 1 1 1 
1 1 1 1 1 1 1 1 1 
1 1 1 1 1 1 1 1 1 
1 1 1 1 1 1 1 1 1 
1 1 1 1 1 1 1 1 1 
1 1 1 1 1 1 1 1 1 
1 1 1 1 1 1 1 1 1 
1 1 1 1 1 1 1 1 1 
1 1 1 1 1 1 1 1 1 
1 1 1 1 1 1 1 1 1 
1 1 1 1 1 1 1 1 1 
1 1 1 1 1 1 1 1 1 
1 1 1 1 1 1 1 1 1 
1 1 1 1 1 1 1 1 1 
1 1 1 1 1 1 1 1 1 
1 1 1 1 1 1 1 1 1 
1 1 1 1 1 1 1 1 1 
1 1 1 1 1 1 1 1 1 
1 1 1 1 1 1 1 1 1 
1 1 1 1 1 1 1 1 1 
1 1 1 1 1 1 1 1 1 
1 1 1 1 1 1 1 1 1 
1 1 1 1 1 1 1 1 1 
1 1 1 1 1 1 1 1 1 
1 1 1 1 1 1 1 1 1 
1 1 1 1 1 1 1 1 1 
1 1 1 1 1 1 1 1 1 
1 1 1 1 1 1 1 1 1 
1 1 1 1 1 1 1 1 1 
1 1 1 1 1 1 1 1 1 
1 1 1 1 1 1 1 1 1 
1 1 1 1 1 1 1 1 1 
1 1 1 1 1 1 1 1 1 
1 1 1 1 1 1 1 1 1 
1 1 1 1 1 1 1 1 1 
1 1 1 1 1 1 1 1 1 
1 1 1 1 1 1 1 1 1 
1 1 1 1 1 1 1 1 1 
1 1 1 1 1 1 1 1 1 
1 1 1 1 1 1 1 1 1 
1 1 1 1 1 1 1 1 1 
1 1 1 1 1 1 1 1 1 
1 1 1 1 1 1 1 1 1 
1 1 1 1 1 1 1 1 1 
1 1 1 1 1 1 1 1 1 
1 1 1 1 1 1 1 1 1 
1 1 1 1 1 1 1 1 1 
1 1 1 1 1 1 1 1 1 
1 1 1 1 1 1 1 1 1 
1 1 1 1 1 1 1 1 1 
1 1 1 1 1 1 1 1 1 
1 1 1 1 1 1 1 1 1 
1 1 1 1 1 1 1 1 1 
1 1 1 1 1 1 1 1 1 
1 1 1 1 1 1 1 1 1 
1 1 1 1 1 1 1 1 1 
1 1 1 1 1 1 1 1 1 
1 1 1 1 1 1 1 1 1 
1 1 1 1 1 1 1 1 1 
1 1 1 1 1 1 1 1 1 
1 1 1 1 1 1 1 1 1 
1 1 1 1 1 1 1 1 1 
1 1 1 1 1 1 1 1 1 
1 1 1 1 1 1 1 1 1 
1 1 1 1 1 1 1 1 1 
1 1 1 1 1 1 1 1 1 
1 1 1 1 1 1 1 1 1 
1 1 1 1 1 1 1 1 1 
1 1 1 1 1 1 1 1 1 
1 1 1 1 1 1 1 1 1 
1 1 1 1 1 1 1 1 1 
1 1 1 1 1 1 1 1 1 
1 1 1 1 1 1 1 1 1 
1 1 1 1 1 1 1 1 1 
1 1 1 1 1 1 1 1 1 
1 1 1 1 1 1 1 1 1 
1 1 1 1 1 1 1 1 1 
1 1 1 1 1 1 1 1 1 
1 1 1 1 1 1 1 1 1 
1 1 1 1 1 1 1 1 1 
1 1 1 1 1 1 1 1 1 
1 1 1 1 1 1 1 1 1 
1 1 1 1 1 1 1 1 1 
1 1 1 1 1 1 1 1 1 
1 1 1 1 1 1 1 1 1 
1 1 1 1 1 1 1 1 1 
1 1 1 1 1 1 1 1 1 
1 1 1 1 1 1 1 1 1 
1 1 1 1 1 1 1 1 1 
1 1 1 1 1 1 1 1 1 
1 1 1 1 1 1 1 1 1 
1 1 1 1 1 1 1 1 1 
1 1 1 1 1 1 1 1 1 
1 1 1 1 1 1 1 1 1 
1 1 1 1 1 1 1 1 1 
1 1 1 1 1 1 1 1 1 
1 1 1 1 1 1 1 1 1 
1 1 1 1 1 1 1 1 1 
1 1 1 1 1 1 1 1 1 
1 1 1 1 1 1 1 1 1 
1 1 1 1 1 1 1 1 1 
1 1 1 1 1 1 1 1 1 
1 1 1 1 1 1 1 1 1 
1 1 1 1 1 1 1 1 1 
1 1 1 1 1 1 1 1 1 
1 1 1 1 1 1 1 1 1 
1 1 1 1 1 1 1 1 1 
1 1 1 1 1 1 1 1 1 
1 1 1 1 1 1 1 1 1 
1 1 1 1 1 1 1 1 1 
1 1 1 1 1 1 1 1 1 
1 1 1 1 1 1 1 1 1 
1 1 1 1 1 1 1 1 1 
1 1 1 1 1 1 1 1 1 
1 1 1 1 1 1 1 1 1 
1 1 1 1 1 1 1 1 1 
1 1 1 1 1 1 1 1 1 
1 1 1 1 1 1 1 1 1 
1 1 1 1 1 1 1 1 1 
1 1 1 1 1 1 1 1 1 
1 1 1 1 1 1 1 1 1 
1 1 1 1 1 1 1 1 1 
1 1 1 1 1 1 1 1 1 
1 1 1 1 1 1 1 1 1 
1 1 1 1 1 1 1 1 1 
1 1 1 1 1 1 1 1 1 
1 1 1 1 1 1 1 1 1 
1 1 1 1 1 1 1 1 1 
1 1 1 1 1 1 1 1 1 
1 1 1 1 1 1 1 1 1 
1 1 1 1 1 1 1 1 1 
1 1 1 1 1 1 1 1 1 
1 1 1 1 1 1 1 1 1 
1 1 1 1 1 1 1 1 1 
1 1 1 1 1 1 1 1 1 
1 1 1 1 1 1 1 1 1 
1 1 1 1 1 1 1 1 1 
1 1 1 1 1 1 1 1 1 
1 1 1 1 1 1 1 1 1 
1 1 1 1 1 1 1 1 1 
1 1 1 1 1 1 1 1 1 
1 1 1 1 1 1 1 1 1 
1 1 1 1 1 1 1 1 1 
1 1 1 1 1 1 1 1 1 
1 1 1 1 1 1 1 1 1 
1 1 1 1 1 1 1 1 1 
1 1 1 1 1 1 1 1 1 
1 1 1 1 1 1 1 1 1 
1 1 1 1 1 1 1 1 1 
1 1 1 1 1 1 1 1 1 
1 1 1 1 1 1 1 1 1 
1 1 1 1 1 1 1 1 1 
1 1 1 1 1 1 1 1 1 
1 1 1 1 1 1 1 1 1 
1 1 1 1 1 1 1 1 1 
1 1 1 1 1 1 1 1 1 
1 1 1 1 1 1 1 1 1 
1 1 1 1 1 1 1 1 1 
1 1 1 1 1 1 1 1 1 
1 1 1 1 1 1 1 1 1 
1 1 1 1 1 1 1 1 1 
1 1 1 1 1 1 1 1 1 
1 1 1 1 1 1 1 1 1 
1 1 1 1 1 1 1 1 1 
1 1 1 1 1 1 1 1 1 
1 1 1 1 1 1 1 1 1 
1 1 1 1 1 1 1 1 1 
1 1 1 1 1 1 1 1 1 
1 1 1 1 1 1 1 1 1 
1 1 1 1 1 1 1 1 1 
1 1 1 1 1 1 1 1 1 
1 1 1 1 1 1 1 1 1 
1 1 1 1 1 1 1 1 1 
1 1 1 1 1 1 1 1 1 
1 1 1 1 1 1 1 1 1 
1 1 1 1 1 1 1 1 1 
1 1 1 1 1 1 1 1 1 
1 1 1 1 1 1 1 1 1 
1 1 1 1 1 1 1 1 1 
1 1 1 1 1 1 1 1 1 
1 1 1 1 1 1 1 1 1 
1 1 1 1 1 1 1 1 1 
1 1 1 1 1 1 1 1 1 
1 1 1 1 1 1 1 1 1 
1 1 1 1 1 1 1 1 1 
1 1 1 1 1 1 1 1 1 
1 1 1 1 1 1 1 1 1 
1 1 1 1 1 1 1 1 1 
1 1 1 1 1 1 1 1 1 
1 1 1 1 1 1 1 1 1 
1 1 1 1 1 1 1 1 1 
1 1 1 1 1 1 1 1 1 
1 1 1 1 1 1 1 1 1 
1 1 1 1 1 1 1 1 1 
1 1 1 1 1 1 1 1 1 
1 1 1 1 1 1 1 1 1 
1 1 1 1 1 1 1 1 1 
1 1 1 1 1 1 1 1 1 
1 1 1 1 1 1 1 1 1 
1 1 1 1 1 1 1 1 1 
1 1 1 1 1 1 1 1 1 
1 1 1 1 1 1 1 1 1 
1 1 1 1 1 1 1 1 1 
1 1 1 1 1 1 1 1 1 
1 1 1 1 1 1 1 1 1 
1 1 1 1 1 1 1 1 1 
1 1 1 1 1 1 1 1 1 
1 1 1 1 1 1 1 1 1 
1 1 1 1 1 1 1 1 1 
1 1 1 1 1 1 1 1 1 
1 1 1 1 1 1 1 1 1 
1 1 1 1 1 1 1 1 1 
1 1 1 1 1 1 1 1 1 
1 1 1 1 1 1 1 1 1 
1 1 1 1 1 1 1 1 1 
1 1 1 1 1 1 1 1 1 
1 1 1 1 1 1 1 1 1 
1 1 1 1 1 1 1 1 1 
1 1 1 1 1 1 1 1 1 
1 1 1 1 1 1 1 1 1 
1 1 1 1 1 1 1 1 1 
1 1 1 1 1 1 1 1 1 
1 1 1 1 1 1 1 1 1 
1 1 1 1 1 1 1 1 1 
1 1 1 1 1 1 1 1 1 
1 1 1 1 1 1 1 1 1 
1 1 1 1 1 1 1 1 1 
1 1 1 1 1 1 1 1 1 
1 1 1 1 1 1 1 1 1 
1 1 1 1 1 1 1 1 1 
1 1 1 1 1 1 1 1 1 
1 1 1 1 1 1 1 1 1 
1 1 1 1 1 1 1 1 1 
1 1 1 1 1 1 1 1 1 
1 1 1 1 1 1 1 1 1 
1 1 1 1 1 1 1 1 1 
1 1 1 1 1 1 1 1 1 
1 1 1 1 1 1 1 1 1 
1 1 1 1 1 1 1 1 1 
1 1 1 1 1 1 1 1 1 
1 1 1 1 1 1 1 1 1 
1 1 1 1 1 1 1 1 1 
1 1 1 1 1 1 1 1 1 
1 1 1 1 1 1 1 1 1 
1 1 1 1 1 1 1 1 1 
1 1 1 1 1 1 1 1 1 
1 1 1 1 1 1 1 1 1 
1 1 1 1 1 1 1 1 1 
1 1 1 1 1 1 1 1 1 
1 1 1 1 1 1 1 1 1 
1 1 1 1 1 1 1 1 1 
1 1 1 1 1 1 1 1 1 
1 1 1 1 1 1 1 1 1 
1 1 1 1 1 1 1 1 1 
1 1 1 1 1 1 1 1 1 
1 1 1 1 1 1 1 1 1 
1 1 1 1 1 1 1 1 1 
1 1 1 1 1 1 1 1 1 
1 1 1 1 1 1 1 1 1 
1 1 1 1 1 1 1 1 1 
1 1 1 1 1 1 1 1 1 
1 1 1 1 1 1 1 1 1 
1 1 1 1 1 1 1 1 1 
1 1 1 1 1 1 1 1 1 
1 1 1 1 1 1 1 1 1 
1 1 1 1 1 1 1 1 1 
1 1 1 1 1 1 1 1 1 
1 1 1 1 1 1 1 1 1 
1 1 1 1 1 1 1 1 1 
1 1 1 1 1 1 1 1 1 
1 1 1 1 1 1 1 1 1 
1 1 1 1 1 1 1 1 1 
1 1 1 1 1 1 1 1 1 
1 1 1 1 1 1 1 1 1 
1 1 1 1 1 1 1 1 1 
1 1 1 1 1 1 1 1 1 
1 1 1 1 1 1 1 1 1 
1 1 1 1 1 1 1 1 1 
1 1 1 1 1 1 1 1 1 
1 1 1 1 1 1 1 1 1 
1 1 1 1 1 1 1 1 1 
1 1 1 1 1 1 1 1 1 
1 1 1 1 1 1 1 1 1 
1 1 1 1 1 1 1 1 1 
1 1 1 1 1 1 1 1 1 
1 1 1 1 1 1 1 1 1 
1 1 1 1 1 1 1 1 1 
1 1 1 1 1 1 1 1 1 
1 1 1 1 1 1 1 1 1 
1 1 1 1 1 1 1 1 1 
1 1 1 1 1 1 1 1 1 
1 1 1 1 1 1 1 1 1 
1 1 1 1 1 1 1 1 1 
1 1 1 1 1 1 1 1 1 
1 1 1 1 1 1 1 1 1 
1 1 1 1 1 1 1 1 1 
1 1 1 1 1 1 1 1 1 
1 1 1 1 1 1 1 1 1 
1 1 1 1 1 1 1 1 1 
1 1 1 1 1 1 1 1 1 
1 1 1 1 1 1 1 1 1 
1 1 1 1 1 1 1 1 1 
1 1 1 1 1 1 1 1 1 
1 1 1 1 1 1 1 1 1 
1 1 1 1 1 1 1 1 1 
1 1 1 1 1 1 1 1 1 
1 1 1 1 1 1 1 1 1 
1 1 1 1 1 1 1 1 1 
1 1 1 1 1 1 1 1 1 
1 1 1 1 1 1 1 1 1 
1 1 1 1 1 1 1 1 1 
1 1 1 1 1 1 1 1 1 
1 1 1 1 1 1 1 1 1 
1 1 1 1 1 1 1 1 1 
1 1 1 1 1 1 1 1 1 
1 1 1 1 1 1 1 1 1 
1 1 1 1 1 1 1 1 1 
1 1 1 1 1 1 1 1 1 
1 1 1 1 1 1 1 1 1 
1 1 1 1 1 1 1 1 1 
1 1 1 1 1 1 1 1 1 
1 1 1 1 1 1 1 1 1 
1 1 1 1 1 1 1 1 1 
1 1 1 1 1 1 1 1 1 
1 1 1 1 1 1 1 1 1 
1 1 1 1 1 1 1 1 1 
1 1 1 1 1 1 1 1 1 
1 1 1 1 1 1 1 1 1 
1 1 1 1 1 1 1 1 1 
1 1 1 1 1 1 1 1 1 
1 1 1 1 1 1 1 1 1 
1 1 1 1 1 1 1 1 1 
1 1 1 1 1 1 1 1 1 
1 1 1 1 1 1 1 1 1 
1 1 1 1 1 1 1 1 1 
1 1 1 1 1 1 1 1 1 
1 1 1 1 1 1 1 1 1 
1 1 1 1 1 1 1 1 1 
1 1 1 1 1 1 1 1 1 
1 1 1 1 1 1 1 1 1 
1 1 1 1 1 1 1 1 1 
1 1 1 1 1 1 1 1 1 
1 1 1 1 1 1 1 1 1 
1 1 1 1 1 1 1 1 1 
1 1 1 1 1 1 1 1 1 
1 1 1 1 1 1 1 1 1 
1 1 1 1 1 1 1 1 1 
1 1 1 1 1 1 1 1 1 
1 1 1 1 1 1 1 1 1 
1 1 1 1 1 1 1 1 1 
1 1 1 1 1 1 1 1 1 
1 1 1 1 1 1 1 1 1 
1 1 1 1 1 1 1 1 1 
1 1 1 1 1 1 1 1 1 
1 1 1 1 1 1 1 1 1 
1 1 1 1 1 1 1 1 1 
1 1 1 1 1 1 1 1 1 
1 1 1 1 1 1 1 1 1 
1 1 1 1 1 1 1 1 1 
1 1 1 1 1 1 1 1 1 
1 1 1 1 1 1 1 1 1 
1 1 1 1 1 1 1 1 1 
1 1 1 1 1 1 1 1 1 
1 1 1 1 1 1 1 1 1 
1 1 1 1 1 1 1 1 1 
1 1 1 1 1 1 1 1 1 
1 1 1 1 1 1 1 1 1 
1 1 1 1 1 1 1 1 1 
1 1 1 1 1 1 1 1 1 
1 1 1 1 1 1 1 1 1 
1 1 1 1 1 1 1 1 1 
1 1 1 1 1 1 1 1 1 
1 1 1 1 1 1 1 1 1 
1 1 1 1 1 1 1 1 1 
1 1 1 1 1 1 1 1 1 
1 1 1 1 1 1 1 1 1 
1 1 1 1 1 1 1 1 1 
1 1 1 1 1 1 1 1 1 
1 1 1 1 1 1 1 1 1 
1 1 1 1 1 1 1 1 1 
1 1 1 1 1 1 1 1 1 
1 1 1 1 1 1 1 1 1 
1 1 1 1 1 1 1 1 1 
1 1 1 1 1 1 1 1 1 
1 1 1 1 1 1 1 1 1 
1 1 1 1 1 1 1 1 1 
1 1 1 1 1 1 1 1 1 
1 1 1 1 1 1 1 1 1 
1 1 1 1 1 1 1 1 1 
1 1 1 1 1 1 1 1 1 
1 1 1 1 1 1 1 1 1 
1 1 1 1 1 1 1 1 1 
1 1 1 1 1 1 1 1 1 
1 1 1 1 1 1 1 1 1 
1 1 1 1 1 1 1 1 1 
1 1 1 1 1 1 1 1 1 
1 1 1 1 1 1 1 1 1 
1 1 1 1 1 1 1 1 1 
1 1 1 1 1 1 1 1 1 
1 1 1 1 1 1 1 1 1 
1 1 1 1 1 1 1 1 1 
1 1 1 1 1 1 1 1 1 
1 1 1 1 1 1 1 1 1 
1 1 1 1 1 1 1 1 1 
1 1 1 1 1 1 1 1 1 
1 1 1 1 1 1 1 1 1 
1 1 1 1 1 1 1 1 1 
1 1 1 1 1 1 1 1 1 
1 1 1 1 1 1 1 1 1 
1 1 1 1 1 1 1 1 1 
1 1 1 1 1 1 1 1 1 
1 1 1 1 1 1 1 1 1 
1 1 1 1 1 1 1 1 1 
1 1 1 1 1 1 1 1 1 
1 1 1 1 1 1 1 1 1 
1 1 1 1 1 1 1 1 1 
1 1 1 1 1 1 1 1 1 
1 1 1 1 1 1 1 1 1 
1 1 1 1 1 1 1 1 1 
1 1 1 1 1 1 1 1 1 
1 1 1 1 1 1 1 1 1 
1 1 1 1 1 1 1 1 1 
1 1 1 1 1 1 1 1 1 
1 1 1 1 1 1 1 1 1 
1 1 1 1 1 1 1 1 1 
1 1 1 1 1 1 1 1 1 
1 1 1 1 1 1 1 1 1 
1 1 1 1 1 1 1 1 1 
1 1 1 1 1 1 1 1 1 
1 1 1 1 1 1 1 1 1 
1 1 1 1 1 1 1 1 1 
1 1 1 1 1 1 1 1 1 
1 1 1 1 1 1 1 1 1 
1 1 1 1 1 1 1 1 1 
1 1 1 1 1 1 1 1 1 
1 1 1 1 1 1 1 1 1 
1 1 1 1 1 1 1 1 1 
1 1 1 1 1 1 1 1 1 
1 1 1 1 1 1 1 1 1 
1 1 1 1 1 1 1 1 1 
1 1 1 1 1 1 1 1 1 
1 1 1 1 1 1 1 1 1 
1 1 1 1 1 1 1 1 1 
1 1 1 1 1 1 1 1 1 
1 1 1 1 1 1 1 1 1 
1 1 1 1 1 1 1 1 1 
1 1 1 1 1 1 1 1 1 
1 1 1 1 1 1 1 1 1 
1 1 1 1 1 1 1 1 1 
1 1 1 1 1 1 1 1 1 
1 1 1 1 1 1 1 1 1 
1 1 1 1 1 1 1 1 1 
1 1 1 1 1 1 1 1 1 
1 1 1 1 1 1 1 1 1 
1 1 1 1 1 1 1 1 1 
1 1 1 1 1 1 1 1 1 
1 1 1 1 1 1 1 1 1 
1 1 1 1 1 1 1 1 1 
1 1 1 1 1 1 1 1 1 
1 1 1 1 1 1 1 1 1 
1 1 1 1 1 1 1 1 1 
1 1 1 1 1 1 1 1 1 
1 1 1 1 1 1 1 1 1 
1 1 1 1 1 1 1 1 1 
1 1 1 1 1 1 1 1 1 
1 1 1 1 1 1 1 1 1 
1 1 1 1 1 1 1 1 1 
1 1 1 1 1 1 1 1 1 
1 1 1 1 1 1 1 1 1 
1 1 1 1 1 1 1 1 1 
1 1 1 1 1 1 1 1 1 
1 1 1 1 1 1 1 1 1 
1 1 1 1 1 1 1 1 1 
1 1 1 1 1 1 1 1 1 
1 1 1 1 1 1 1 1 1 
1 1 1 1 1 1 1 1 1 
1 1 1 1 1 1 1 1 1 
1 1 1 1 1 1 1 1 1 
1 1 1 1 1 1 1 1 1 
1 1 1 1 1 1 1 1 1 
1 1 1 1 1 1 1 1 1 
1 1 1 1 1 1 1 1 1 
1 1 1 1 1 1 1 1 1 
1 1 1 1 1 1 1 1 1 
1 1 1 1 1 1 1 1 1 
1 1 1 1 1 1 1 1 1 
1 1 1 1 1 1 1 1 1 
1 1 1 1 1 1 1 1 1 
1 1 1 1 1 1 1 1 1 
1 1 1 1 1 1 1 1 1 
1 1 1 1 1 1 1 1 1 
1 1 1 1 1 1 1 1 1 
1 1 1 1 1 1 1 1 1 
1 1 1 1 1 1 1 1 1 
1 1 1 1 1 1 1 1 1 
1 1 1 1 1 1 1 1 1 
1 1 1 1 1 1 1 1 1 
1 1 1 1 1 1 1 1 1 
1 1 1 1 1 1 1 1 1 
1 1 1 1 1 1 1 1 1 
1 1 1 1 1 1 1 1 1 
1 1 1 1 1 1 1 1 1 
1 1 1 1 1 1 1 1 1 
1 1 1 1 1 1 1 1 1 
1 1 1 1 1 1 1 1 1 
1 1 1 1 1 1 1 1 1 
1 1 1 1 1 1 1 1 1 
1 1 1 1 1 1 1 1 1 
1 1 1 1 1 1 1 1 1 
1 1 1 1 1 1 1 1 1 
1 1 1 1 1 1 1 1 1 
1 1 1 1 1 1 1 1 1 
1 1 1 1 1 1 1 1 1 
1 1 1 1 1 1 1 1 1 
1 1 1 1 1 1 1 1 1 
1 1 1 1 1 1 1 1 1 
1 1 1 1 1 1 1 1 1 
1 1 1 1 1 1 1 1 1 
1 1 1 1 1 1 1 1 1 
1 1 1 1 1 1 1 1 1 
1 1 1 1 1 1 1 1 1 
1 1 1 1 1 1 1 1 1 
1 1 1 1 1 1 1 1 1 
1 1 1 1 1 1 1 1 1 
1 1 1 1 1 1 1 1 1 
1 1 1 1 1 1 1 1 1 
1 1 1 1 1 1 1 1 1 
1 1 1 1 1 1 1 1 1 
1 1 1 1 1 1 1 1 1 
1 1 1 1 1 1 1 1 1 
1 1 1 1 1 1 1 1 1 
1 1 1 1 1 1 1 1 1 
1 1 1 1 1 1 1 1 1 
1 1 1 1 1 1 1 1 1 
1 1 1 1 1 1 1 1 1 
1 1 1 1 1 1 1 1 1 
1 1 1 1 1 1 1 1 1 
1 1 1 1 1 1 1 1 1 
1 1 1 1 1 1 1 1 1 
1 1 1 1 1 1 1 1 1 
1 1 1 1 1 1 1 1 1 
1 1 1 1 1 1 1 1 1 
1 1 1 1 1 1 1 1 1 
1 1 1 1 1 1 1 1 1 
1 1 1 1 1 1 1 1 1 
1 1 1 1 1 1 1 1 1 
1 1 1 1 1 1 1 1 1 
1 1 1 1 1 1 1 1 1 
1 1 1 1 1 1 1 1 1 
1 1 1 1 1 1 1 1 1 
1 1 1 1 1 1 1 1 1 
1 1 1 1 1 1 1 1 1 
1 1 1 1 1 1 1 1 1 
1 1 1 1 1 1 1 1 1 
1 1 1 1 1 1 1 1 1 
1 1 1 1 1 1 1 1 1 
1 1 1 1 1 1 1 1 1 
1 1 1 1 1 1 1 1 1 
1 1 1 1 1 1 1 1 1 
1 1 1 1 1 1 1 1 1 
1 1 1 1 1 1 1 1 1 
1 1 1 1 1 1 1 1 1 
1 1 1 1 1 1 1 1 1 
1 1 1 1 1 1 1 1 1 
1 1 1 1 1 1 1 1 1 
1 1 1 1 1 1 1 1 1 
1 1 1 1 1 1 1 1 1 
1 1 1 1 1 1 1 1 1 
1 1 1 1 1 1 1 1 1 
1 1 1 1 1 1 1 1 1 
1 1 1 1 1 1 1 1 1 
1 1 1 1 1 1 1 1 1 
1 1 1 1 1 1 1 1 1 
1 1 1 1 1 1 1 1 1 
1 1 1 1 1 1 1 1 1 
1 1 1 1 1 1 1 1 1 
1 1 1 1 1 1 1 1 1 
1 1 1 1 1 1 1 1 1 
1 1 1 1 1 1 1 1 1 
1 1 1 1 1 1 1 1 1 
1 1 1 1 1 1 1 1 1 
1 1 1 1 1 1 1 1 1 
1 1 1 1 1 1 1 1 1 
1 1 1 1 1 1 1 1 1 
1 1 1 1 1 1 1 1 1 
1 1 1 1 1 1 1 1 1 
1 1 1 1 1 1 1 1 1 
1 1 1 1 1 1 1 1 1 
1 1 1 1 1 1 1 1 1 
1 1 1 1 1 1 1 1 1 
1 1 1 1 1 1 1 1 1 
1 1 1 1 1 1 1 1 1 
1 1 1 1 1 1 1 1 1 
1 1 1 1 1 1 1 1 1 
1 1 1 1 1 1 1 1 1 
1 1 1 1 1 1 1 1 1 
1 1 1 1 1 1 1 1 1 
1 1 1 1 1 1 1 1 1 
1 1 1 1 1 1 1 1 1 
1 1 1 1 1 1 1 1 1 
1 1 1 1 1 1 1 1 1 
1 1 1 1 1 1 1 1 1 
1 1 1 1 1 1 1 1 1 
1 1 1 1 1 1 1 1 1 
1 1 1 1 1 1 1 1 1 
1 1 1 1 1 1 1 1 1 
1 1 1 1 1 1 1 1 1 
1 1 1 1 1 1 1 1 1 
1 1 1 1 1 1 1 1 1 
1 1 1 1 1 1 1 1 1 
1 1 1 1 1 1 1 1 1 
1 1 1 1 1 1 1 1 1 
1 1 1 1 1 1 1 1 1 
1 1 1 1 1 1 1 1 1 
1 1 1 1 1 1 1 1 1 
1 1 1 1 1 1 1 1 1 
1 1 1 1 1 1 1 1 1 
1 1 1 1 1 1 1 1 1 
1 1 1 1 1 1 1 1 1 
1 1 1 1 1 1 1 1 1 
1 1 1 1 1 1 1 1 1 
1 1 1 1 1 1 1 1 1 
1 1 1 1 1 1 1 1 1 
1 1 1 1 1 1 1 1 1 
1 1 1 1 1 1 1 1 1 
1 1 1 1 1 1 1 1 1 
1 1 1 1 1 1 1 1 1 
1 1 1 1 1 1 1 1 1 
1 1 1 1 1 1 1 1 1 
1 1 1 1 1 1 1 1 1 
1 1 1 1 1 1 1 1 1 
1 1 1 1 1 1 1 1 1 
1 1 1 1 1 1 1 1 1 
1 1 1 1 1 1 1 1 1 
1 1 1 1 1 1 1 1 1 
1 1 1 1 1 1 1 1 1 
1 1 1 1 1 1 1 1 1 
1 1 1 1 1 1 1 1 1 
1 1 1 1 1 1 1 1 1 
1 1 1 1 1 1 1 1 1 
1 1 1 1 1 1 1 1 1 
1 1 1 1 1 1 1 1 1 
1 1 1 1 1 1 1 1 1 
1 1 1 1 1 1 1 1 1 
1 1 1 1 1 1 1 1 1 
1 1 1 1 1 1 1 1 1 
1 1 1 1 1 1 1 1 1 
1 1 1 1 1 1 1 1 1 
1 1 1 1 1 1 1 1 1 
1 1 1 1 1 1 1 1 1 
1 1 1 1 1 1 1 1 1 
1 1 1 1 1 1 1 1 1 
1 1 1 1 1 1 1 1 1 
1 1 1 1 1 1 1 1 1 
1 1 1 1 1 1 1 1 1 
1 1 1 1 1 1 1 1 1 
1 1 1 1 1 1 1 1 1 
1 1 1 1 1 1 1 1 1 
1 1 1 1 1 1 1 1 1 
1 1 1 1 1 1 1 1 1 
1 1 1 1 1 1 1 1 1 
1 1 1 1 1 1 1 1 1 
1 1 1 1 1 1 1 1 1 
1 1 1 1 1 1 1 1 1 
1 1 1 1 1 1 1 1 1 
1 1 1 1 1 1 1 1 1 
1 1 1 1 1 1 1 1 1 
1 1 1 1 1 1 1 1 1 
1 1 1 1 1 1 1 1 1 
1 1 1 1 1 1 1 1 1 
1 1 1 1 1 1 1 1 1 
1 1 1 1 1 1 1 1 1 
1 1 1 1 1 1 1 1 1 
1 1 1 1 1 1 1 1 1 
1 1 1 1 1 1 1 1 1 
1 1 1 1 1 1 1 1 1 
1 1 1 1 1 1 1 1 1 
1 1 1 1 1 1 1 1 1 
1 1 1 1 1 1 1 1 1 
1 1 1 1 1 1 1 1 1 
1 1 1 1 1 1 1 1 1 
1 1 1 1 1 1 1 1 1 
1 1 1 1 1 1 1 1 1 
1 1 1 1 1 1 1 1 1 
1 1 1 1 1 1 1 1 1 
1 1 1 1 1 1 1 1 1 
1 1 1 1 1 1 1 1 1 
1 1 1 1 1 1 1 1 1 
1 1 1 1 1 1 1 1 1 
1 1 1 1 1 1 1 1 1 
1 1 1 1 1 1 1 1 1 
1 1 1 1 1 1 1 1 1 
1 1 1 1 1 1 1 1 1 
1 1 1 1 1 1 1 1 1 
1 1 1 1 1 1 1 1 1 
1 1 1 1 1 1 1 1 1 
1 1 1 1 1 1 1 1 1 
1 1 1 1 1 1 1 1 1 
1 1 1 1 1 1 1 1 1 
1 1 1 1 1 1 1 1 1 
1 1 1 1 1 1 1 1 1 
1 1 1 1 1 1 1 1 1 
1 1 1 1 1 1 1 1 1 
1 1 1 1 1 1 1 1 1 
1 1 1 1 1 1 1 1 1 
1 1 1 1 1 1 1 1 1 
1 1 1 1 1 1 1 1 1 
1 1 1 1 1 1 1 1 1 
1 1 1 1 1 1 1 1 1 
1 1 1 1 1 1 1 1 1 
1 1 1 1 1 1 1 1 1 
1 1 1 1 1 1 1 1 1 
1 1 1 1 1 1 1 1 1 
1 1 1 1 1 1 1 1 1 
1 1 1 1 1 1 1 1 1 
1 1 1 1 
NORMALS normals float
0 -0.071247 -0.997459 0 -0.707107 -0.707107 -0.679521 -0.0522708 -0.731792 
0.679521 -0.0522708 -0.731792 0 0 -1 -0.680451 0 -0.732794 
0.680451 0 -0.732794 0 0 -1 -0.680451 0 -0.732794 
0.680451 0 -0.732794 0 0 -1 -0.680451 0 -0.732794 
0.680451 0 -0.732794 0 0 -1 -0.680451 0 -0.732794 
0.680451 0 -0.732794 0 0 -1 -0.680451 0 -0.732794 
0.680451 0 -0.732794 0 0 -1 -0.680451 0 -0.732794 
0.680451 0 -0.732794 0 0.071247 -0.997459 -0.679521 0.0522708 -0.731792 
0.679521 0.0522708 -0.731792 0 0.707107 -0.707107 -0.0710669 -0.0710669 -0.994937 
-0.0504433 -0.706207 -0.706207 -0.706207 -0.0504433 -0.706207 0.071247 0 -0.997459 
0.0522708 -0.679521 -0.731792 0.707107 0 -0.707107 0 0 -1 
-0.680451 0 -0.732794 0.562565 0.562565 -0.605839 0.59108 0.54886 -0.59108 
0 0 -1 -0.680451 0 -0.732794 0.680451 0 -0.732794 
0 0.071247 -0.997459 -0.576215 -0.531891 -0.620539 0.679521 0.0522708 -0.731792 
-0.0710669 -0.0710669 -0.994937 -0.0504433 -0.706207 -0.706207 -0.706207 -0.0504433 -0.706207 
0.071247 0 -0.997459 -0.531891 -0.576215 -0.620539 0.54886 0.59108 -0.59108 
0.59108 0.54886 -0.59108 0 0.071247 -0.997459 -0.576215 -0.531891 -0.620539 
0.54886 0.59108 -0.59108 0.59108 0.54886 -0.59108 -0.0710669 -0.0710669 -0.994937 
-0.0504433 -0.706207 -0.706207 -0.706207 -0.0504433 -0.706207 0.071247 0 -0.997459 
-0.531891 -0.576215 -0.620539 0.54886 0.59108 -0.59108 0.59108 0.54886 -0.59108 
0 0.071247 -0.997459 -0.679521 0.0522708 -0.731792 0.54886 0.59108 -0.59108 
0.59108 0.54886 -0.59108 0 0.707107 -0.707107 0 -0.707107 -0.707107 
0 -0.707107 -0.707107 -0.54886 -0.59108 -0.59108 0.54886 -0.59108 -0.59108 
-0.0710669 -0.0710669 -0.994937 -0.0504433 -0.706207 -0.706207 -0.57735 -0.57735 -0.57735 
0 -0.071247 -0.997459 0 -0.707107 -0.707107 0 -0.071247 -0.997459 
0 -0.707107 -0.707107 0 -0.071247 -0.997459 0 -0.707107 -0.707107 
0 -0.071247 -0.997459 0 -0.707107 -0.707107 0 -0.071247 -0.997459 
0 -0.707107 -0.707107 0 -0.071247 -0.997459 0 -0.707107 -0.707107 
0 -0.071247 -0.997459 0 -0.707107 -0.707107 0 -0.071247 -0.997459 
0 -0.707107 -0.707107 0 -0.071247 -0.997459 0 -0.707107 -0.707107 
0 -0.071247 -0.997459 0 -0.707107 -0.707107 0 -0.071247 -0.997459 
0 -0.707107 -0.707107 -0.679521 -0.0522708 -0.731792 -0.54886 -0.59108 -0.59108 
0.679521 -0.0522708 -0.731792 0.54886 -0.59108 -0.59108 0.0710669 -0.0710669 -0.994937 
0.0710669 -0.994937 -0.0710669 0.994937 -0.0710669 -0.0710669 -0.0710669 -0.0710669 -0.994937 
-0.57735 -0.57735 -0.57735 -0.57735 -0.57735 -0.57735 0 0 -1 
0 0 -1 0 0 -1 0 0 -1 
0 0 -1 0 0 -1 0 0 -1 
0 0 -1 0 0 -1 0 0 -1 
0 0 -1 0 0 -1 -0.680451 0 -0.732794 
0.680451 0 -0.732794 0.071247 0 -0.997459 0.997459 0 -0.071247 
-0.0710669 -0.0710669 -0.994937 -0.57735 -0.57735 -0.57735 -0.57735 -0.57735 -0.57735 
0 0 -1 0 0 -1 0 0 -1 
0 0 -1 0 0 -1 0 0 -1 
0 0 -1 0 0 -1 0 0 -1 
0 0 -1 0 0 -1 0 0 -1 
0 0 -1 -0.680451 0 -0.732794 0.680451 0 -0.732794 
0.071247 0 -0.997459 0.997459 0 -0.071247 -0.0710669 -0.0710669 -0.994937 
-0.57735 -0.57735 -0.57735 -0.57735 -0.57735 -0.57735 0 0 -1 
0 0 -1 0 0 -1 0 0 -1 
0 0 -1 0 0 -1 0 0 -1 
0 0 -1 0 0 -1 0 0 -1 
0 0 -1 0 0 -1 0 0 -1 
0 0 -1 -0.680451 0 -0.732794 0.680451 0 -0.732794 
0.071247 0 -0.997459 0.997459 0 -0.071247 -0.0710669 -0.0710669 -0.994937 
-0.57735 -0.57735 -0.57735 -0.57735 -0.57735 -0.57735 0 0 -1 
0 0 -1 0 0 -1 0 0 -1 
0 0 -1 0 0 -1 0 0 -1 
0 0 -1 0 0 -1 0 0 -1 
0 0 -1 0 0 -1 0 0 -1 
0 0 -1 0 0 -1 -0.680451 0 -0.732794 
0.680451 0 -0.732794 0.071247 0 -0.997459 0.997459 0 -0.071247 
-0.071247 0 -0.997459 -0.59108 -0.54886 -0.59108 -0.707107 0 -0.707107 
0 0 -1 0 0 -1 0 0 -1 
0 0 -1 0 0 -1 0 0 -1 
0 0 -1 0 0 -1 0 0 -1 
0 0 -1 0 0 -1 0 0 -1 
0 0 -1 0 0 -1 0 0 -1 
0 0 -1 -0.680451 0 -0.732794 0.680451 0 -0.732794 
0.071247 0 -0.997459 0.997459 0 -0.071247 -0.707107 0 -0.707107 
-0.707107 0 -0.707107 -0.071247 0 -0.997459 0 0 -1 
0 0 -1 0 0 -1 0 0 -1 
0 0 -1 0 0 -1 0 0 -1 
0 0 -1 0 0 -1 0 0 -1 
0 0 -1 0 0 -1 0 0 -1 
0 0 -1 0 0 -1 -0.680451 0 -0.732794 
0.680451 0 -0.732794 0.0710669 0.0710669 -0.994937 0.994937 0.0710669 -0.0710669 
-0.0710669 -0.0710669 -0.994937 -0.706207 -0.0504433 -0.706207 -0.57735 -0.57735 -0.57735 
0 0 -1 0 0 -1 0 0 -1 
0 0 -1 0 0 -1 0 0 -1 
0 0 -1 0 0 -1 0 0 -1 
0 0 -1 0 0 -1 0 0 -1 
0 0 -1 0 0 -1 0 0 -1 
0 0 -1 -0.680451 0 -0.732794 0.706207 0.0504433 -0.706207 
0.706207 0.706207 -0.0504433 0.706207 0.706207 -0.0504433 -0.0710669 -0.0710669 -0.994937 
-0.57735 -0.57735 -0.57735 -0.706207 -0.0504433 -0.706207 0 0 -1 
0 0 -1 0 0 -1 0 0 -1 
0 0 -1 0 0 -1 0 0 -1 
0 0 -1 0 0 -1 0 0 -1 
0 0 -1 0 0 -1 0 0 -1 
0 0 -1 0 0 -1 0 0 -1 
0 0 -1 0 0 -1 0.0522708 0.679521 -0.731792 
0.731792 0.679521 -0.0522708 0.706207 0.706207 -0.0504433 -0.071247 0 -0.997459 
-0.707107 0 -0.707107 0 0 -1 0 0 -1 
0 0 -1 0 0 -1 0 0 -1 
0 0 -1 0 0 -1 0 0 -1 
0 0 -1 0 0 -1 0 0 -1 
0 0 -1 0 0 -1 0 0 -1 
0 0 -1 0 0 -1 0 0 -1 
0 0 -1 0.071247 0 -0.997459 0.997459 0 -0.071247 
-0.071247 0 -0.997459 -0.59108 -0.54886 -0.59108 0 0 -1 
0 0 -1 0 0 -1 0 0 -1 
0 0 -1 0 0 -1 0 0 -1 
0 0 -1 0 0 -1 0 0 -1 
0 0 -1 0 0 -1 0 0 -1 
0 0 -1 0 0 -1 0 0 -1 
0 0 -1 0 0 -1 0.071247 0 -0.997459 
0.997459 0 -0.071247 -0.0710669 -0.0710669 -0.994937 -0.57735 -0.57735 -0.57735 
-0.57735 -0.57735 -0.57735 0 0 -1 0 0 -1 
0 0 -1 0 0 -1 0 0 -1 
0 0 -1 0 0 -1 0 0 -1 
0 0 -1 0 0 -1 0 0 -1 
0 0 -1 0 0 -1 0 0 -1 
0 0 -1 0 0 -1 0 0 -1 
0 0 -1 0 0 -1 0.071247 0 -0.997459 
0.997459 0 -0.071247 -0.0710669 -0.0710669 -0.994937 -0.57735 -0.57735 -0.57735 
-0.706207 -0.0504433 -0.706207 0 0 -1 0 0 -1 
0 0 -1 0 0 -1 0 0 -1 
0 0 -1 0 0 -1 0 0 -1 
0 0 -1 0 0 -1 0 0 -1 
0 0 -1 0 0 -1 0 0 -1 
0 0 -1 0 0 -1 0 0 -1 
0 0 -1 0 0 -1 0 0 -1 