# vtk DataFile Version 3.0
vtk output
ASCII
DATASET POLYDATA
POINTS 6194 float
110 138 44.0625 110 137.062 45 109.062 138 45 
110.938 138 45 110 139 44.0625 109.062 139 45 
111 138.062 45 111 139 44.0625 112 139 44.0625 
112 138.062 45 113 139 44.0625 113 138.062 45 
114 139 44.0625 114 138.062 45 115 139 44.0625 
115 138.062 45 116 139 44.0625 116 138.062 45 
116.938 139 45 110 139.938 45 111 139.938 45 
112 139.938 45 113 139.938 45 114 139.938 45 
115 139.938 45 116 139.938 45 116 143 44.0625 
116 142.062 45 115.062 143 45 117 143 44.0625 
117 142.062 45 117.938 143 45 116 144 44.0625 
115.062 144 45 116.938 144 45 117 143.938 45 
116 145 44.0625 115.062 145 45 116.938 145 45 
116 146 44.0625 115.062 146 45 116.938 146 45 
116 147 44.0625 115.062 147 45 117 146.062 45 
117 147 44.0625 118 147 44.0625 118 146.062 45 
118.938 147 45 116 147.938 45 117 147.938 45 
117.062 148 45 118 148 44.0625 118.938 148 45 
118 149 44.0625 117.062 149 45 118.938 149 45 
118 150 44.0625 117.062 150 45 118.938 150 45 
118 151 44.0625 117.062 151 45 119 150.062 45 
119 151 44.0625 120 151 44.0625 120 150.062 45 
121 151 44.0625 121 150.062 45 122 151 44.0625 
122 150.062 45 123 151 44.0625 123 150.062 45 
124 151 44.0625 124 150.062 45 124.938 151 45 
118 151.938 45 119 151.938 45 120 151.938 45 
121 151.938 45 122 151.938 45 123 151.938 45 
123.062 152 45 124 152 44.0625 124.938 152 45 
124 153 44.0625 123.062 153 45 125 152.062 45 
125 153 44.0625 126 153 44.0625 126 152.062 45 
127 153 44.0625 127 152.062 45 127.938 153 45 
124 153.938 45 125 153.938 45 126 153.938 45 
127 153.938 45 114 137 45.0625 114 136.062 46 
113.062 137 46 114.938 137 46 109 138 45.0625 
109 137.062 46 108.062 138 46 110 137.062 46 
111 138 45.0625 111 137.062 46 112 138 45.0625 
112 137.062 46 113 138 45.0625 113 137.062 46 
114 138 45.0625 115 137.062 46 115 138 45.0625 
116 138 45.0625 116 137.062 46 116.938 138 46 
108 139 45.0625 108 138.062 46 107.062 139 46 
109 139 45.0625 116.938 139 46 105 140 45.0625 
105 139.062 46 104.062 140 46 106 140 45.0625 
106 139.062 46 107 140 45.0625 107 139.062 46 
108 140 45.0625 109 140 45.0625 110 140 45.0625 
111 140 45.0625 112 140 45.0625 113 140 45.0625 
114 140 45.0625 115 140 45.0625 116 140 45.0625 
117 139.062 46 117 140 45.0625 118 140 45.0625 
118 139.062 46 118.938 140 46 104 141 45.0625 
104 140.062 46 103.062 141 46 105 141 45.0625 
106 141 45.0625 107 141 45.0625 108 141 45.0625 
109 141 45.0625 110 141 45.0625 111 141 45.0625 
112 141 45.0625 113 141 45.0625 114 141 45.0625 
115 141 45.0625 116 141 45.0625 117 141 45.0625 
118 141 45.0625 118.938 141 46 104 141.938 46 
104.062 142 46 105 142 45.0625 106 142 45.0625 
107 142 45.0625 108 142 45.0625 109 142 45.0625 
110 142 45.0625 111 142 45.0625 112 142 45.0625 
113 142 45.0625 114 142 45.0625 115 142 45.0625 
116 142 45.0625 117 142 45.0625 118 142 45.0625 
118.938 142 46 105 143 45.0625 104.062 143 46 
106 143 45.0625 107 143 45.0625 108 143 45.0625 
109 143 45.0625 110 143 45.0625 111 143 45.0625 
112 143 45.0625 113 143 45.0625 114 143 45.0625 
115 143 45.0625 118 143 45.0625 118.938 143 46 
105 143.938 46 106 143.938 46 106.062 144 46 
107 144 45.0625 108 144 45.0625 109 144 45.0625 
110 144 45.0625 111 144 45.0625 112 144 45.0625 
113 144 45.0625 114 144 45.0625 115 144 45.0625 
117 144 45.0625 118 144 45.0625 118.938 144 46 
107 145 45.0625 106.062 145 46 108 145 45.0625 
109 145 45.0625 110 145 45.0625 111 145 45.0625 
112 145 45.0625 113 145 45.0625 114 145 45.0625 
115 145 45.0625 117 145 45.0625 118 145 45.0625 
118.938 145 46 107 146 45.0625 106.062 146 46 
108 146 45.0625 109 146 45.0625 110 146 45.0625 
111 146 45.0625 112 146 45.0625 113 146 45.0625 
114 146 45.0625 115 146 45.0625 117 146 45.0625 
118 146 45.0625 119 145.062 46 119 146 45.0625 
120 146 45.0625 120 145.062 46 120.938 146 46 
107 147 45.0625 106.062 147 46 108 147 45.0625 
109 147 45.0625 110 147 45.0625 111 147 45.0625 
112 147 45.0625 113 147 45.0625 114 147 45.0625 
115 147 45.0625 119 147 45.0625 120 147 45.0625 
120.938 147 46 107 147.938 46 108 147.938 46 
108.062 148 46 109 148 45.0625 110 148 45.0625 
111 148 45.0625 112 148 45.0625 113 148 45.0625 
114 148 45.0625 115 148 45.0625 116 148 45.0625 
117 148 45.0625 119 148 45.0625 120 148 45.0625 
121 147.062 46 121 148 45.0625 122 148 45.0625 
122 147.062 46 122.938 148 46 109 149 45.0625 
108.062 149 46 110 149 45.0625 111 149 45.0625 
112 149 45.0625 113 149 45.0625 114 149 45.0625 
115 149 45.0625 116 149 45.0625 117 149 45.0625 
119 149 45.0625 120 149 45.0625 121 149 45.0625 
122 149 45.0625 122.938 149 46 109 149.938 46 
110 149.938 46 110.062 150 46 111 150 45.0625 
112 150 45.0625 113 150 45.0625 114 150 45.0625 
115 150 45.0625 116 150 45.0625 117 150 45.0625 
119 150 45.0625 120 150 45.0625 121 150 45.0625 
122 150 45.0625 123 149.062 46 123 150 45.0625 
124 150 45.0625 124 149.062 46 125 150 45.0625 
125 149.062 46 126 150 45.0625 126 149.062 46 
126.938 150 46 111 151 45.0625 110.062 151 46 
112 151 45.0625 113 151 45.0625 114 151 45.0625 
115 151 45.0625 116 151 45.0625 117 151 45.0625 
125 151 45.0625 126 151 45.0625 126.938 151 46 
111 151.938 46 112 151.938 46 113 151.938 46 
114 151.938 46 114.062 152 46 115 152 45.0625 
116 152 45.0625 117 152 45.0625 118 152 45.0625 
119 152 45.0625 120 152 45.0625 121 152 45.0625 
122 152 45.0625 123 152 45.0625 125 152 45.0625 
126 152 45.0625 127 151.062 46 127 152 45.0625 
128 152 45.0625 128 151.062 46 128.938 152 46 
115 153 45.0625 114.062 153 46 116 153 45.0625 
117 153 45.0625 118 153 45.0625 119 153 45.0625 
120 153 45.0625 121 153 45.0625 122 153 45.0625 
123 153 45.0625 128 153 45.0625 128.938 153 46 
115 153.938 46 116 153.938 46 117 153.938 46 
118 153.938 46 119 153.938 46 120 153.938 46 
120.062 154 46 121 154 45.0625 122 154 45.0625 
123 154 45.0625 124 154 45.0625 125 154 45.0625 
126 154 45.0625 127 154 45.0625 128 154 45.0625 
128.938 154 46 121 155 45.0625 120.062 155 46 
122 155 45.0625 123 155 45.0625 124 155 45.0625 
125 155 45.0625 126 155 45.0625 127 155 45.0625 
127.938 155 46 128 154.938 46 121 155.938 46 
122 155.938 46 123 155.938 46 124 155.938 46 
125 155.938 46 126 155.938 46 127 155.938 46 
109 137 46.0625 109 136.062 47 108.062 137 47 
110 137 46.0625 110 136.062 47 110.938 137 47 
114 136.062 47 113.062 137 47 115 137 46.0625 
115 136.062 47 115.938 137 47 108.062 138 47 
111 137.062 47 112 137.062 47 113 137.062 47 
116 137.062 47 116.938 138 47 108 138.062 47 
107.062 139 47 117 138.062 47 117 139 46.0625 
117.938 139 47 105 139.062 47 104.062 140 47 
106 139.062 47 107 139.062 47 118 139.062 47 
118.938 140 47 104 140.062 47 103.062 141 47 
118.938 141 47 104 141.938 47 104.062 142 47 
118.938 142 47 104.062 143 47 118.938 143 47 
105 143.938 47 106 143.938 47 106.062 144 47 
118.938 144 47 106.062 145 47 119 144.062 47 
119 145 46.0625 120 145 46.0625 120 144.062 47 
120.938 145 47 106.062 146 47 120.938 146 47 
106.062 147 47 121 146.062 47 121 147 46.0625 
122 147 46.0625 122 146.062 47 122.938 147 47 
107 147.938 47 108 147.938 47 108.062 148 47 
122.938 148 47 108.062 149 47 123 148.062 47 
123 149 46.0625 124 149 46.0625 124 148.062 47 
125 149 46.0625 125 148.062 47 125.938 149 47 
109 149.938 47 110 149.938 47 110.062 150 47 
126 149.062 47 126.938 150 47 110.062 151 47 
126.938 151 47 111 151.938 47 112 151.938 47 
113 151.938 47 114 152 46.0625 113.062 152 47 
127 151.062 47 128 151.062 47 128.938 152 47 
114 153 46.0625 113.062 153 47 128.938 153 47 
114 153.938 47 115 153.938 47 116 153.938 47 
117 153.938 47 118 153.938 47 119 153.938 47 
120 154 46.0625 119.062 154 47 128.938 154 47 
120 155 46.0625 119.062 155 47 128 155 46.0625 
128.938 155 47 120 155.938 47 121 155.938 47 
122 155.938 47 123 155.938 47 124 155.938 47 
125 155.938 47 126 155.938 47 127 155.938 47 
128 155.938 47 109 137 47.9375 109.062 137 48 
110 136.062 48 110.938 137 48 114 137 47.9375 
115 137 47.9375 109 137.062 48 108.062 138 48 
111 137.062 48 112 137.062 48 113 137.062 48 
114 137.062 48 115 137.062 48 116 137.062 48 
116.938 138 48 108 138.062 48 107.062 139 48 
117 139 47.9375 116.938 139 48 118 139 47.0625 
118 138.062 48 117.062 139 48 118.938 139 48 
105 139.062 48 104.062 140 48 106 139.062 48 
107 139.062 48 117 139.062 48 119 140 47.0625 
119 139.062 48 120 140 47.0625 120 139.062 48 
120.938 140 48 104 140.062 48 103.062 141 48 
119 141 47.0625 120 141 47.0625 120.938 141 48 
122 141 47.0625 122 140.062 48 121.062 141 48 
122.938 141 48 104 141.938 48 104.062 142 48 
119 142 47.0625 120 142 47.0625 121 141.062 48 
121 142 47.0625 122 142 47.0625 123 141.062 48 
123 142 47.0625 124 142 47.0625 124 141.062 48 
124.938 142 48 104.062 143 48 119 143 47.0625 
120 143 47.0625 121 143 47.0625 122 143 47.0625 
123 143 47.0625 124 143 47.0625 124.938 143 48 
105 143.938 48 106 143.938 48 106.062 144 48 
119 144 47.0625 120 144 47.0625 121 144 47.0625 
122 144 47.0625 123 144 47.0625 124 144 47.0625 
124.938 144 48 106.062 145 48 121 145 47.0625 
122 145 47.0625 123 145 47.0625 124 145 47.0625 
124.938 145 48 106.062 146 48 121 146 47.0625 
122 146 47.0625 123 146 47.0625 124 146 47.0625 
124.938 146 48 106.062 147 48 123 147 47.0625 
124 147 47.0625 124.938 147 48 107 147.938 48 
108 147.938 48 108.062 148 48 123 148 47.0625 
124 148 47.0625 125 147.062 48 125 148 47.0625 
126 148 47.0625 126 147.062 48 126.938 148 48 
108.062 149 48 126 149 47.0625 126.938 149 48 
109 149.938 48 110 149.938 48 110.062 150 48 
126.938 150 48 110.062 151 48 126.938 151 48 
111 151.938 48 112 151.938 48 113 152 47.0625 
112.062 152 48 127 151.062 48 128 151.062 48 
128.938 152 48 113 153 47.0625 112.062 153 48 
128.938 153 48 113 153.938 48 114 153.938 48 
115 154 47.0625 114.062 154 48 116 154 47.0625 
117 154 47.0625 118 154 47.0625 119 154 47.0625 
129 153.062 48 129 154 47.0625 130 154 47.0625 
130 153.062 48 130.938 154 48 115 155 47.0625 
114.062 155 48 116 155 47.0625 117 155 47.0625 
118 155 47.0625 119 155 47.0625 129 155 47.0625 
[...]
POINT_DATA 6194
SCALARS scalars float
LOOKUP_TABLE default
1 1 1 1 1 1 1 1 1 
1 1 1 1 1 1 1 1 1 
1 1 1 1 1 1 1 1 1 
1 1 1 1 1 1 1 1 1 
1 1 1 1 1 1 1 1 1 
1 1 1 1 1 1 1 1 1 
1 1 1 1 1 1 1 1 1 
1 1 1 1 1 1 1 1 1 
1 1 1 1 1 1 1 1 1 
1 1 1 1 1 1 1 1 1 
1 1 1 1 1 1 1 1 1 
1 1 1 1 1 1 1 1 1 
1 1 1 1 1 1 1 1 1 
1 1 1 1 1 1 1 1 1 
1 1 1 1 1 1 1 1 1 
1 1 1 1 1 1 1 1 1 
1 1 1 1 1 1 1 1 1 
1 1 1 1 1 1 1 1 1 
1 1 1 1 1 1 1 1 1 
1 1 1 1 1 1 1 1 1 
1 1 1 1 1 1 1 1 1 
1 1 1 1 1 1 1 1 1 
1 1 1 1 1 1 1 1 1 
1 1 1 1 1 1 1 1 1 
1 1 1 1 1 1 1 1 1 
1 1 1 1 1 1 1 1 1 
1 1 1 1 1 1 1 1 1 
1 1 1 1 1 1 1 1 1 
1 1 1 1 1 1 1 1 1 
1 1 1 1 1 1 1 1 1 
1 1 1 1 1 1 1 1 1 
1 1 1 1 1 1 1 1 1 
1 1 1 1 1 1 1 1 1 
1 1 1 1 1 1 1 1 1 
1 1 1 1 1 1 1 1 1 
1 1 1 1 1 1 1 1 1 
1 1 1 1 1 1 1 1 1 
1 1 1 1 1 1 1 1 1 
1 1 1 1 1 1 1 1 1 
1 1 1 1 1 1 1 1 1 
1 1 1 1 1 1 1 1 1 
1 1 1 1 1 1 1 1 1 
1 1 1 1 1 1 1 1 1 
1 1 1 1 1 1 1 1 1 
1 1 1 1 1 1 1 1 1 
1 1 1 1 1 1 1 1 1 
1 1 1 1 1 1 1 1 1 
1 1 1 1 1 1 1 1 1 
1 1 1 1 1 1 1 1 1 
1 1 1 1 1 1 1 1 1 
1 1 1 1 1 1 1 1 1 
1 1 1 1 1 1 1 1 1 
1 1 1 1 1 1 1 1 1 
1 1 1 1 1 1 1 1 1 
1 1 1 1 1 1 1 1 1 
1 1 1 1 1 1 1 1 1 
1 1 1 1 1 1 1 1 1 
1 1 1 1 1 1 1 1 1 
1 1 1 1 1 1 1 1 1 
1 1 1 1 1 1 1 1 1 
1 1 1 1 1 1 1 1 1 
1 1 1 1 1 1 1 1 1 
1 1 1 1 1 1 1 1 1 
1 1 1 1 1 1 1 1 1 
1 1 1 1 1 1 1 1 1 
1 1 1 1 1 1 1 1 1 
1 1 1 1 1 1 1 1 1 
1 1 1 1 1 1 1 1 1 
1 1 1 1 1 1 1 1 1 
1 1 1 1 1 1 1 1 1 
1 1 1 1 1 1 1 1 1 
1 1 1 1 1 1 1 1 1 
1 1 1 1 1 1 1 1 1 
1 1 1 1 1 1 1 1 1 
1 1 1 1 1 1 1 1 1 
1 1 1 1 1 1 1 1 1 
1 1 1 1 1 1 1 1 1 
1 1 1 1 1 1 1 1 1 
1 1 1 1 1 1 1 1 1 
1 1 1 1 1 1 1 1 1 
1 1 1 1 1 1 1 1 1 
1 1 1 1 1 1 1 1 1 
1 1 1 1 1 1 1 1 1 
1 1 1 1 1 1 1 1 1 
1 1 1 1 1 1 1 1 1 
1 1 1 1 1 1 1 1 1 
1 1 1 1 1 1 1 1 1 
1 1 1 1 1 1 1 1 1 
1 1 1 1 1 1 1 1 1 
1 1 1 1 1 1 1 1 1 
1 1 1 1 1 1 1 1 1 
1 1 1 1 1 1 1 1 1 
1 1 1 1 1 1 1 1 1 
1 1 1 1 1 1 1 1 1 
1 1 1 1 1 1 1 1 1 
1 1 1 1 1 1 1 1 1 
1 1 1 1 1 1 1 1 1 
1 1 1 1 1 1 1 1 1 
1 1 1 1 1 1 1 1 1 
1 1 1 1 1 1 1 1 1 
1 1 1 1 1 1 1 1 1 
1 1 1 1 1 1 1 1 1 
1 1 1 1 1 1 1 1 1 
1 1 1 1 1 1 1 1 1 
1 1 1 1 1 1 1 1 1 
1 1 1 1 1 1 1 1 1 
1 1 1 1 1 1 1 1 1 
1 1 1 1 1 1 1 1 1 
1 1 1 1 1 1 1 1 1 
1 1 1 1 1 1 1 1 1 
1 1 1 1 1 1 1 1 1 
1 1 1 1 1 1 1 1 1 
1 1 1 1 1 1 1 1 1 
1 1 1 1 1 1 1 1 1 
1 1 1 1 1 1 1 1 1 
1 1 1 1 1 1 1 1 1 
1 1 1 1 1 1 1 1 1 
1 1 1 1 1 1 1 1 1 
1 1 1 1 1 1 1 1 1 
1 1 1 1 1 1 1 1 1 
1 1 1 1 1 1 1 1 1 
1 1 1 1 1 1 1 1 1 
1 1 1 1 1 1 1 1 1 
1 1 1 1 1 1 1 1 1 
1 1 1 1 1 1 1 1 1 
1 1 1 1 1 1 1 1 1 
1 1 1 1 1 1 1 1 1 
1 1 1 1 1 1 1 1 1 
1 1 1 1 1 1 1 1 1 
1 1 1 1 1 1 1 1 1 
1 1 1 1 1 1 1 1 1 
1 1 1 1 1 1 1 1 1 
1 1 1 1 1 1 1 1 1 
1 1 1 1 1 1 1 1 1 
1 1 1 1 1 1 1 1 1 
1 1 1 1 1 1 1 1 1 
1 1 1 1 1 1 1 1 1 
1 1 1 1 1 1 1 1 1 
1 1 1 1 1 1 1 1 1 
1 1 1 1 1 1 1 1 1 
1 1 1 1 1 1 1 1 1 
1 1 1 1 1 1 1 1 1 
1 1 1 1 1 1 1 1 1 
1 1 1 1 1 1 1 1 1 
1 1 1 1 1 1 1 1 1 
1 1 1 1 1 1 1 1 1 
1 1 1 1 1 1 1 1 1 
1 1 1 1 1 1 1 1 1 
1 1 1 1 1 1 1 1 1 
1 1 1 1 1 1 1 1 1 
1 1 1 1 1 1 1 1 1 
1 1 1 1 1 1 1 1 1 
1 1 1 1 1 1 1 1 1 
1 1 1 1 1 1 1 1 1 
1 1 1 1 1 1 1 1 1 
1 1 1 1 1 1 1 1 1 
1 1 1 1 1 1 1 1 1 
1 1 1 1 1 1 1 1 1 
1 1 1 1 1 1 1 1 1 
1 1 1 1 1 1 1 1 1 
1 1 1 1 1 1 1 1 1 
1 1 1 1 1 1 1 1 1 
1 1 1 1 1 1 1 1 1 
1 1 1 1 1 1 1 1 1 
1 1 1 1 1 1 1 1 1 
1 1 1 1 1 1 1 1 1 
1 1 1 1 1 1 1 1 1 
1 1 1 1 1 1 1 1 1 
1 1 1 1 1 1 1 1 1 
1 1 1 1 1 1 1 1 1 
1 1 1 1 1 1 1 1 1 
1 1 1 1 1 1 1 1 1 
1 1 1 1 1 1 1 1 1 
1 1 1 1 1 1 1 1 1 
1 1 1 1 1 1 1 1 1 
1 1 1 1 1 1 1 1 1 
1 1 1 1 1 1 1 1 1 
1 1 1 1 1 1 1 1 1 
1 1 1 1 1 1 1 1 1 
1 1 1 1 1 1 1 1 1 
1 1 1 1 1 1 1 1 1 
1 1 1 1 1 1 1 1 1 
1 1 1 1 1 1 1 1 1 
1 1 1 1 1 1 1 1 1 
1 1 1 1 1 1 1 1 1 
1 1 1 1 1 1 1 1 1 
1 1 1 1 1 1 1 1 1 
1 1 1 1 1 1 1 1 1 
1 1 1 1 1 1 1 1 1 
1 1 1 1 1 1 1 1 1 
1 1 1 1 1 1 1 1 1 
1 1 1 1 1 1 1 1 1 
1 1 1 1 1 1 1 1 1 
1 1 1 1 1 1 1 1 1 
1 1 1 1 1 1 1 1 1 
1 1 1 1 1 1 1 1 1 
1 1 1 1 1 1 1 1 1 
1 1 1 1 1 1 1 1 1 
1 1 1 1 1 1 1 1 1 
1 1 1 1 1 1 1 1 1 
1 1 1 1 1 1 1 1 1 
1 1 1 1 1 1 1 1 1 
1 1 1 1 1 1 1 1 1 
1 1 1 1 1 1 1 1 1 
1 1 1 1 1 1 1 1 1 
1 1 1 1 1 1 1 1 1 
1 1 1 1 1 1 1 1 1 
1 1 1 1 1 1 1 1 1 
1 1 1 1 1 1 1 1 1 
1 1 1 1 1 1 1 1 1 
1 1 1 1 1 1 1 1 1 
1 1 1 1 1 1 1 1 1 
1 1 1 1 1 1 1 1 1 
1 1 1 1 1 1 1 1 1 
1 1 1 1 1 1 1 1 1 
1 1 1 1 1 1 1 1 1 
1 1 1 1 1 1 1 1 1 
1 1 1 1 1 1 1 1 1 
1 1 1 1 1 1 1 1 1 
1 1 1 1 1 1 1 1 1 
1 1 1 1 1 1 1 1 1 
1 1 1 1 1 1 1 1 1 
1 1 1 1 1 1 1 1 1 
1 1 1 1 1 1 1 1 1 
1 1 1 1 1 1 1 1 1 
1 1 1 1 1 1 1 1 1 
1 1 1 1 1 1 1 1 1 
1 1 1 1 1 1 1 1 1 
1 1 1 1 1 1 1 1 1 
1 1 1 1 1 1 1 1 1 
1 1 1 1 1 1 1 1 1 
1 1 1 1 1 1 1 1 1 
1 1 1 1 1 1 1 1 1 
1 1 1 1 1 1 1 1 1 
1 1 1 1 1 1 1 1 1 
1 1 1 1 1 1 1 1 1 
1 1 1 1 1 1 1 1 1 
1 1 1 1 1 1 1 1 1 
1 1 1 1 1 1 1 1 1 
1 1 1 1 1 1 1 1 1 
1 1 1 1 1 1 1 1 1 
1 1 1 1 1 1 1 1 1 
1 1 1 1 1 1 1 1 1 
1 1 1 1 1 1 1 1 1 
1 1 1 1 1 1 1 1 1 
1 1 1 1 1 1 1 1 1 
1 1 1 1 1 1 1 1 1 
1 1 1 1 1 1 1 1 1 
1 1 1 1 1 1 1 1 1 
1 1 1 1 1 1 1 1 1 
1 1 1 1 1 1 1 1 1 
1 1 1 1 1 1 1 1 1 
1 1 1 1 1 1 1 1 1 
1 1 1 1 1 1 1 1 1 
1 1 1 1 1 1 1 1 1 
1 1 1 1 1 1 1 1 1 
1 1 1 1 1 1 1 1 1 
1 1 1 1 1 1 1 1 1 
1 1 1 1 1 1 1 1 1 
1 1 1 1 1 1 1 1 1 
1 1 1 1 1 1 1 1 1 
1 1 1 1 1 1 1 1 1 
1 1 1 1 1 1 1 1 1 
1 1 1 1 1 1 1 1 1 
1 1 1 1 1 1 1 1 1 
1 1 1 1 1 1 1 1 1 
1 1 1 1 1 1 1 1 1 
1 1 1 1 1 1 1 1 1 
1 1 1 1 1 1 1 1 1 
1 1 1 1 1 1 1 1 1 
1 1 1 1 1 1 1 1 1 
1 1 1 1 1 1 1 1 1 
1 1 1 1 1 1 1 1 1 
1 1 1 1 1 1 1 1 1 
1 1 1 1 1 1 1 1 1 
1 1 1 1 1 1 1 1 1 
1 1 1 1 1 1 1 1 1 
1 1 1 1 1 1 1 1 1 
1 1 1 1 1 1 1 1 1 
1 1 1 1 1 1 1 1 1 
1 1 1 1 1 1 1 1 1 
1 1 1 1 1 1 1 1 1 
1 1 1 1 1 1 1 1 1 
1 1 1 1 1 1 1 1 1 
1 1 1 1 1 1 1 1 1 
1 1 1 1 1 1 1 1 1 
1 1 1 1 1 1 1 1 1 
1 1 1 1 1 1 1 1 1 
1 1 1 1 1 1 1 1 1 
1 1 1 1 1 1 1 1 1 
1 1 1 1 1 1 1 1 1 
1 1 1 1 1 1 1 1 1 
1 1 1 1 1 1 1 1 1 
1 1 1 1 1 1 1 1 1 
1 1 1 1 1 1 1 1 1 
1 1 1 1 1 1 1 1 1 
1 1 1 1 1 1 1 1 1 
1 1 1 1 1 1 1 1 1 
1 1 1 1 1 1 1 1 1 
1 1 1 1 1 1 1 1 1 
1 1 1 1 1 1 1 1 1 
1 1 1 1 1 1 1 1 1 
1 1 1 1 1 1 1 1 1 
1 1 1 1 1 1 1 1 1 
1 1 1 1 1 1 1 1 1 
1 1 1 1 1 1 1 1 1 
1 1 1 1 1 1 1 1 1 
1 1 1 1 1 1 1 1 1 
1 1 1 1 1 1 1 1 1 
1 1 1 1 1 1 1 1 1 
1 1 1 1 1 1 1 1 1 
1 1 1 1 1 1 1 1 1 
1 1 1 1 1 1 1 1 1 
1 1 1 1 1 1 1 1 1 
1 1 1 1 1 1 1 1 1 
1 1 1 1 1 1 1 1 1 
1 1 1 1 1 1 1 1 1 
1 1 1 1 1 1 1 1 1 
1 1 1 1 1 1 1 1 1 
1 1 1 1 1 1 1 1 1 
1 1 1 1 1 1 1 1 1 
1 1 1 1 1 1 1 1 1 
1 1 1 1 1 1 1 1 1 
1 1 1 1 1 1 1 1 1 
1 1 1 1 1 1 1 1 1 
1 1 1 1 1 1 1 1 1 
1 1 1 1 1 1 1 1 1 
1 1 1 1 1 1 1 1 1 
1 1 1 1 1 1 1 1 1 
1 1 1 1 1 1 1 1 1 
1 1 1 1 1 1 1 1 1 
1 1 1 1 1 1 1 1 1 
1 1 1 1 1 1 1 1 1 
1 1 1 1 1 1 1 1 1 
1 1 1 1 1 1 1 1 1 
1 1 1 1 1 1 1 1 1 
1 1 1 1 1 1 1 1 1 
1 1 1 1 1 1 1 1 1 
1 1 1 1 1 1 1 1 1 
1 1 1 1 1 1 1 1 1 
1 1 1 1 1 1 1 1 1 
1 1 1 1 1 1 1 1 1 
1 1 1 1 1 1 1 1 1 
1 1 1 1 1 1 1 1 1 
1 1 1 1 1 1 1 1 1 
1 1 1 1 1 1 1 1 1 
1 1 1 1 1 1 1 1 1 
1 1 1 1 1 1 1 1 1 
1 1 1 1 1 1 1 1 1 
1 1 1 1 1 1 1 1 1 
1 1 1 1 1 1 1 1 1 
1 1 1 1 1 1 1 1 1 
1 1 1 1 1 1 1 1 1 
1 1 1 1 1 1 1 1 1 
1 1 1 1 1 1 1 1 1 
1 1 1 1 1 1 1 1 1 
1 1 1 1 1 1 1 1 1 
1 1 1 1 1 1 1 1 1 
1 1 1 1 1 1 1 1 1 
1 1 1 1 1 1 1 1 1 
1 1 1 1 1 1 1 1 1 
1 1 1 1 1 1 1 1 1 
1 1 1 1 1 1 1 1 1 
1 1 1 1 1 1 1 1 1 
1 1 1 1 1 1 1 1 1 
1 1 1 1 1 1 1 1 1 
1 1 1 1 1 1 1 1 1 
1 1 1 1 1 1 1 1 1 
1 1 1 1 1 1 1 1 1 
1 1 1 1 1 1 1 1 1 
1 1 1 1 1 1 1 1 1 
1 1 1 1 1 1 1 1 1 
1 1 1 1 1 1 1 1 1 
1 1 1 1 1 1 1 1 1 
1 1 1 1 1 1 1 1 1 
1 1 1 1 1 1 1 1 1 
1 1 1 1 1 1 1 1 1 
1 1 1 1 1 1 1 1 1 
1 1 1 1 1 1 1 1 1 
1 1 1 1 1 1 1 1 1 
1 1 1 1 1 1 1 1 1 
1 1 1 1 1 1 1 1 1 
1 1 1 1 1 1 1 1 1 
1 1 1 1 1 1 1 1 1 
1 1 1 1 1 1 1 1 1 
1 1 1 1 1 1 1 1 1 
1 1 1 1 1 1 1 1 1 
1 1 1 1 1 1 1 1 1 
1 1 1 1 1 1 1 1 1 
1 1 1 1 1 1 1 1 1 
1 1 1 1 1 1 1 1 1 
1 1 1 1 1 1 1 1 1 
1 1 1 1 1 1 1 1 1 
1 1 1 1 1 1 1 1 1 
1 1 1 1 1 1 1 1 1 
1 1 1 1 1 1 1 1 1 
1 1 1 1 1 1 1 1 1 
1 1 1 1 1 1 1 1 1 
1 1 1 1 1 1 1 1 1 
1 1 1 1 1 1 1 1 1 
1 1 1 1 1 1 1 1 1 
1 1 1 1 1 1 1 1 1 
1 1 1 1 1 1 1 1 1 
1 1 1 1 1 1 1 1 1 
1 1 1 1 1 1 1 1 1 
1 1 1 1 1 1 1 1 1 
1 1 1 1 1 1 1 1 1 
1 1 1 1 1 1 1 1 1 
1 1 1 1 1 1 1 1 1 
1 1 1 1 1 1 1 1 1 
1 1 1 1 1 1 1 1 1 
1 1 1 1 1 1 1 1 1 
1 1 1 1 1 1 1 1 1 
1 1 1 1 1 1 1 1 1 
1 1 1 1 1 1 1 1 1 
1 1 1 1 1 1 1 1 1 
1 1 1 1 1 1 1 1 1 
1 1 1 1 1 1 1 1 1 
1 1 1 1 1 1 1 1 1 
1 1 1 1 1 1 1 1 1 
1 1 1 1 1 1 1 1 1 
1 1 1 1 1 1 1 1 1 
1 1 1 1 1 1 1 1 1 
1 1 1 1 1 1 1 1 1 
1 1 1 1 1 1 1 1 1 
1 1 1 1 1 1 1 1 1 
1 1 1 1 1 1 1 1 1 
1 1 1 1 1 1 1 1 1 
1 1 1 1 1 1 1 1 1 
1 1 1 1 1 1 1 1 1 
1 1 1 1 1 1 1 1 1 
1 1 1 1 1 1 1 1 1 
1 1 1 1 1 1 1 1 1 
1 1 1 1 1 1 1 1 1 
1 1 1 1 1 1 1 1 1 
1 1 1 1 1 1 1 1 1 
1 1 1 1 1 1 1 1 1 
1 1 1 1 1 1 1 1 1 
1 1 1 1 1 1 1 1 1 
1 1 1 1 1 1 1 1 1 
1 1 1 1 1 1 1 1 1 
1 1 1 1 1 1 1 1 1 
1 1 1 1 1 1 1 1 1 
1 1 1 1 1 1 1 1 1 
1 1 1 1 1 1 1 1 1 
1 1 1 1 1 1 1 1 1 
1 1 1 1 1 1 1 1 1 
1 1 1 1 1 1 1 1 1 
1 1 1 1 1 1 1 1 1 
1 1 1 1 1 1 1 1 1 
1 1 1 1 1 1 1 1 1 
1 1 1 1 1 1 1 1 1 
1 1 1 1 1 1 1 1 1 
1 1 1 1 1 1 1 1 1 
1 1 1 1 1 1 1 1 1 
1 1 1 1 1 1 1 1 1 
1 1 1 1 1 1 1 1 1 
1 1 1 1 1 1 1 1 1 
1 1 1 1 1 1 1 1 1 
1 1 1 1 1 1 1 1 1 
1 1 1 1 1 1 1 1 1 
1 1 1 1 1 1 1 1 1 
1 1 1 1 1 1 1 1 1 
1 1 1 1 1 1 1 1 1 
1 1 1 1 1 1 1 1 1 
1 1 1 1 1 1 1 1 1 
1 1 1 1 1 1 1 1 1 
1 1 1 1 1 1 1 1 1 
1 1 1 1 1 1 1 1 1 
1 1 1 1 1 1 1 1 1 
1 1 1 1 1 1 1 1 1 
1 1 1 1 1 1 1 1 1 
1 1 1 1 1 1 1 1 1 
1 1 1 1 1 1 1 1 1 
1 1 1 1 1 1 1 1 1 
1 1 1 1 1 1 1 1 1 
1 1 1 1 1 1 1 1 1 
1 1 1 1 1 1 1 1 1 
1 1 1 1 1 1 1 1 1 
1 1 1 1 1 1 1 1 1 
1 1 1 1 1 1 1 1 1 
1 1 1 1 1 1 1 1 1 
1 1 1 1 1 1 1 1 1 
1 1 1 1 1 1 1 1 1 
1 1 1 1 1 1 1 1 1 
1 1 1 1 1 1 1 1 1 
1 1 1 1 1 1 1 1 1 
1 1 1 1 1 1 1 1 1 
1 1 1 1 1 1 1 1 1 
1 1 1 1 1 1 1 1 1 
1 1 1 1 1 1 1 1 1 
1 1 1 1 1 1 1 1 1 
1 1 1 1 1 1 1 1 1 
1 1 1 1 1 1 1 1 1 
1 1 1 1 1 1 1 1 1 
1 1 1 1 1 1 1 1 1 
1 1 1 1 1 1 1 1 1 
1 1 1 1 1 1 1 1 1 
1 1 1 1 1 1 1 1 1 
1 1 1 1 1 1 1 1 1 
1 1 1 1 1 1 1 1 1 
1 1 1 1 1 1 1 1 1 
1 1 1 1 1 1 1 1 1 
1 1 1 1 1 1 1 1 1 
1 1 1 1 1 1 1 1 1 
1 1 1 1 1 1 1 1 1 
1 1 1 1 1 1 1 1 1 
1 1 1 1 1 1 1 1 1 
1 1 1 1 1 1 1 1 1 
1 1 1 1 1 1 1 1 1 
1 1 1 1 1 1 1 1 1 
1 1 1 1 1 1 1 1 1 
1 1 1 1 1 1 1 1 1 
1 1 1 1 1 1 1 1 1 
1 1 1 1 1 1 1 1 1 
1 1 1 1 1 1 1 1 1 
1 1 1 1 1 1 1 1 1 
1 1 1 1 1 1 1 1 1 
1 1 1 1 1 1 1 1 1 
1 1 1 1 1 1 1 1 1 
1 1 1 1 1 1 1 1 1 
1 1 1 1 1 1 1 1 1 
1 1 1 1 1 1 1 1 1 
1 1 1 1 1 1 1 1 1 
1 1 1 1 1 1 1 1 1 
1 1 1 1 1 1 1 1 1 
1 1 1 1 1 1 1 1 1 
1 1 1 1 1 1 1 1 1 
1 1 1 1 1 1 1 1 1 
1 1 1 1 1 1 1 1 1 
1 1 1 1 1 1 1 1 1 
1 1 1 1 1 1 1 1 1 
1 1 1 1 1 1 1 1 1 
1 1 1 1 1 1 1 1 1 
1 1 1 1 1 1 1 1 1 
1 1 1 1 1 1 1 1 1 
1 1 1 1 1 1 1 1 1 
1 1 1 1 1 1 1 1 1 
1 1 1 1 1 1 1 1 1 
1 1 1 1 1 1 1 1 1 
1 1 1 1 1 1 1 1 1 
1 1 1 1 1 1 1 1 1 
1 1 1 1 1 1 1 1 1 
1 1 1 1 1 1 1 1 1 
1 1 1 1 1 1 1 1 1 
1 1 1 1 1 1 1 1 1 
1 1 1 1 1 1 1 1 1 
1 1 1 1 1 1 1 1 1 
1 1 1 1 1 1 1 1 1 
1 1 1 1 1 1 1 1 1 
1 1 1 1 1 1 1 1 1 
1 1 1 1 1 1 1 1 1 
1 1 1 1 1 1 1 1 1 
1 1 1 1 1 1 1 1 1 
1 1 1 1 1 1 1 1 1 
1 1 1 1 1 1 1 1 1 
1 1 1 1 1 1 1 1 1 
1 1 1 1 1 1 1 1 1 
1 1 1 1 1 1 1 1 1 
1 1 1 1 1 1 1 1 1 
1 1 1 1 1 1 1 1 1 
1 1 1 1 1 1 1 1 1 
1 1 1 1 1 1 1 1 1 
1 1 1 1 1 1 1 1 1 
1 1 1 1 1 1 1 1 1 
1 1 1 1 1 1 1 1 1 
1 1 1 1 1 1 1 1 1 
1 1 1 1 1 1 1 1 1 
1 1 1 1 1 1 1 1 1 
1 1 1 1 1 1 1 1 1 
1 1 1 1 1 1 1 1 1 
1 1 1 1 1 1 1 1 1 
1 1 1 1 1 1 1 1 1 
1 1 1 1 1 1 1 1 1 
1 1 1 1 1 1 1 1 1 
1 1 1 1 1 1 1 1 1 
1 1 1 1 1 1 1 1 1 
1 1 1 1 1 1 1 1 1 
1 1 1 1 1 1 1 1 1 
1 1 1 1 1 1 1 1 1 
1 1 1 1 1 1 1 1 1 
1 1 1 1 1 1 1 1 1 
1 1 1 1 1 1 1 1 1 
1 1 1 1 1 1 1 1 1 
1 1 1 1 1 1 1 1 1 
1 1 1 1 1 1 1 1 1 
1 1 1 1 1 1 1 1 1 
1 1 1 1 1 1 1 1 1 
1 1 1 1 1 1 1 1 1 
1 1 1 1 1 1 1 1 1 
1 1 1 1 1 1 1 1 1 
1 1 1 1 1 1 1 1 1 
1 1 1 1 1 1 1 1 1 
1 1 1 1 1 1 1 1 1 
1 1 1 1 1 1 1 1 1 
1 1 1 1 1 1 1 1 1 
1 1 1 1 1 1 1 1 1 
1 1 1 1 1 1 1 1 1 
1 1 1 1 1 1 1 1 1 
1 1 1 1 1 1 1 1 1 
1 1 1 1 1 1 1 1 1 
1 1 1 1 1 1 1 1 1 
1 1 1 1 1 1 1 1 1 
1 1 1 1 1 1 1 1 1 
1 1 1 1 1 1 1 1 1 
1 1 1 1 1 1 1 1 1 
1 1 1 1 1 1 1 1 1 
1 1 1 1 1 1 1 1 1 
1 1 1 1 1 1 1 1 1 
1 1 1 1 1 1 1 1 1 
1 1 1 1 1 1 1 1 1 
1 1 1 1 1 1 1 1 1 
1 1 1 1 1 1 1 1 1 
1 1 1 1 1 1 1 1 1 
1 1 1 1 1 1 1 1 1 
1 1 1 1 1 1 1 1 1 
1 1 1 1 1 1 1 1 1 
1 1 1 1 1 1 1 1 1 
1 1 1 1 1 1 1 1 1 
1 1 1 1 1 1 1 1 1 
1 1 1 1 1 1 1 1 1 
1 1 1 1 1 1 1 1 1 
1 1 1 1 1 1 1 1 1 
1 1 1 1 1 1 1 1 1 
1 1 1 1 1 1 1 1 1 
1 1 1 1 1 1 1 1 1 
1 1 1 1 1 1 1 1 1 
1 1 1 1 1 1 1 1 1 
1 1 1 1 1 1 1 1 1 
1 1 1 1 1 1 1 1 1 
1 1 1 1 1 1 1 1 1 
1 1 1 1 1 1 1 1 1 
1 1 1 1 1 1 1 1 1 
1 1 1 1 1 1 1 1 1 
1 1 1 1 1 1 1 1 1 
1 1 1 1 1 1 1 1 1 
1 1 1 1 1 1 1 1 1 
1 1 1 1 1 1 1 1 1 
1 1 1 1 1 1 1 1 1 
1 1 1 1 1 1 1 1 1 
1 1 1 1 1 1 1 1 1 
1 1 1 1 1 1 1 1 1 
1 1 1 1 1 1 1 1 1 
1 1 1 1 1 1 1 1 1 
1 1 1 1 1 1 1 1 1 
1 1 1 1 1 1 1 1 1 
1 1 1 1 1 1 1 1 1 
1 1 1 1 1 1 1 1 1 
1 1 1 1 1 1 1 1 1 
1 1 1 1 1 1 1 1 1 
1 1 1 1 1 1 1 1 1 
1 1 1 1 1 1 1 1 1 
1 1 1 1 1 1 1 1 1 
1 1 1 1 1 1 1 1 1 
1 1 1 1 1 1 1 1 1 
1 1 1 1 1 1 1 1 1 
1 1 1 1 1 1 1 1 1 
1 1 1 1 1 1 1 1 1 
1 1 1 1 1 1 1 1 1 
1 1 1 1 1 1 1 1 1 
1 1 1 1 1 1 1 1 1 
1 1 1 1 1 1 1 1 1 
1 1 1 1 1 1 1 1 1 
1 1 1 1 1 1 1 1 1 
1 1 1 1 1 1 1 1 1 
1 1 1 1 1 1 1 1 1 
1 1 1 1 1 1 1 1 1 
1 1 1 1 1 1 1 1 1 
1 1 1 1 1 1 1 1 1 
1 1 1 1 1 1 1 1 1 
1 1 1 1 1 1 1 1 1 
1 1 1 1 1 1 1 1 1 
1 1 1 1 1 1 1 1 1 
1 1 1 1 1 1 1 1 1 
1 1 1 1 1 1 1 1 1 
1 1 1 1 1 1 1 1 1 
1 1 1 1 1 1 1 1 1 
1 1 1 1 1 1 1 1 1 
1 1 1 1 1 1 1 1 1 
1 1 1 1 1 1 1 1 1 
1 1 1 1 1 1 1 1 1 
1 1 1 1 1 1 1 1 1 
1 1 1 1 1 1 1 1 1 
1 1 1 1 1 1 1 1 1 
1 1 1 1 1 1 1 1 1 
1 1 1 1 1 1 1 1 1 
1 1 1 1 1 1 1 1 1 
1 1 1 1 1 1 1 1 1 
1 1 
NORMALS normals float
0 -0.0623783 -0.998053 0 -0.998053 -0.0623783 -0.683231 -0.0455488 -0.72878 
0.552532 -0.589368 -0.589368 -0.0622573 0.0622573 -0.996117 -0.706417 0.0441511 -0.706417 
0.564532 -0.564532 -0.602168 0 0 -1 0 0 -1 
0 -0.683941 -0.729537 0 0 -1 0 -0.683941 -0.729537 
0 0 -1 0 -0.683941 -0.729537 0 0 -1 
0 -0.683941 -0.729537 0.0623783 0 -0.998053 0.0455488 -0.683231 -0.72878 
0.998053 0 -0.0623783 -0.0441511 0.706417 -0.706417 0 0.683941 -0.729537 
0 0.683941 -0.729537 0 0.683941 -0.729537 0 0.683941 -0.729537 
0 0.683941 -0.729537 0.0455488 0.683231 -0.72878 -0.0622573 -0.0622573 -0.996117 
-0.0441511 -0.706417 -0.706417 -0.706417 -0.0441511 -0.706417 0.0623783 0 -0.998053 
0.0455488 -0.683231 -0.72878 0.707107 0 -0.707107 0 0 -1 
-0.683941 0 -0.729537 0.564532 0.564532 -0.602168 0.589368 0.552532 -0.589368 
0 0 -1 -0.683941 0 -0.729537 0.683941 0 -0.729537 
0 0 -1 -0.683941 0 -0.729537 0.564532 -0.564532 -0.602168 
-0.0622573 0.0622573 -0.996117 -0.706417 0.0441511 -0.706417 0.564532 -0.564532 -0.602168 
0 0 -1 0.0622573 -0.0622573 -0.996117 0.0441511 -0.706417 -0.706417 
0.706417 -0.0441511 -0.706417 -0.0441511 0.706417 -0.706417 -0.564532 0.564532 -0.602168 
-0.564532 0.564532 -0.602168 0 0 -1 0.683941 0 -0.729537 
0 0 -1 -0.683941 0 -0.729537 0.683941 0 -0.729537 
0 0 -1 -0.683941 0 -0.729537 0.564532 -0.564532 -0.602168 
-0.0622573 0.0622573 -0.996117 -0.706417 0.0441511 -0.706417 0.564532 -0.564532 -0.602168 
0 0 -1 0 0 -1 0 -0.683941 -0.729537 
0 0 -1 0 -0.683941 -0.729537 0 0 -1 
0 -0.683941 -0.729537 0 0 -1 0 -0.683941 -0.729537 
0.0622573 -0.0622573 -0.996117 0.0441511 -0.706417 -0.706417 0.706417 -0.0441511 -0.706417 
-0.0441511 0.706417 -0.706417 0 0.683941 -0.729537 0 0.683941 -0.729537 
0 0.683941 -0.729537 0 0.683941 -0.729537 -0.564532 0.564532 -0.602168 
-0.564532 0.564532 -0.602168 0 0 -1 0.564532 -0.564532 -0.602168 
-0.0622573 0.0622573 -0.996117 -0.706417 0.0441511 -0.706417 0.564532 -0.564532 -0.602168 
0 0 -1 0 0 -1 0 -0.683941 -0.729537 
0.0623783 0 -0.998053 0.0455488 -0.683231 -0.72878 0.707107 0 -0.707107 
-0.0441511 0.706417 -0.706417 0 0.683941 -0.729537 0 0.683941 -0.729537 
0.0455488 0.683231 -0.72878 0 -0.0623783 -0.998053 0 -0.998053 -0.0623783 
-0.683231 -0.72878 -0.0455488 0.552532 -0.589368 -0.589368 -0.706417 -0.0441511 -0.706417 
-0.0441511 -0.706417 -0.706417 -0.706417 -0.706417 -0.0441511 0 -0.729537 -0.683941 
0.552532 -0.589368 -0.589368 0 -0.998053 -0.0623783 0 -0.707107 -0.707107 
0 -0.998053 -0.0623783 0 -0.707107 -0.707107 -0.683231 -0.72878 -0.0455488 
0 -0.683941 -0.729537 0.552532 -0.589368 -0.589368 0 -0.707107 -0.707107 
0.0441511 -0.706417 -0.706417 0.0622573 -0.996117 -0.0622573 0.996117 -0.0622573 -0.0622573 
-0.0622573 -0.0622573 -0.996117 -0.706417 -0.706417 -0.0441511 -0.706417 -0.706417 -0.0441511 
-0.683941 0 -0.729537 0.602168 -0.564532 -0.564532 -0.0622573 -0.0622573 -0.996117 
-0.0622573 -0.996117 -0.0622573 -0.706417 -0.706417 -0.0441511 0 -0.0623783 -0.998053 
0 -0.998053 -0.0623783 0 -0.0623783 -0.998053 -0.683231 -0.72878 -0.0455488 
0 0 -1 0 0 -1 0 0.683941 -0.729537 
0 0.683941 -0.729537 0 0.683941 -0.729537 0 0.683941 -0.729537 
0 0.683941 -0.729537 0 0.683941 -0.729537 0 0.683941 -0.729537 
0.552532 -0.589368 -0.589368 0 -0.0623783 -0.998053 0.0622573 -0.0622573 -0.996117 
0.0622573 -0.996117 -0.0622573 0.996117 -0.0622573 -0.0622573 -0.0623783 0 -0.998053 
-0.72878 -0.683231 -0.0455488 -0.998053 0 -0.0623783 0 0 -1 
0 0 -1 0 0 -1 0 0 -1 
0 0 -1 0 0 -1 0 0 -1 
0 0 -1 0 0 -1 0 0 -1 
0 0 -1 0 0 -1 0 0 -1 
0.0623783 0 -0.998053 0.998053 0 -0.0623783 -0.72878 0.683231 -0.0455488 
-0.72878 0.683231 -0.0455488 -0.0623783 0 -0.998053 0 0 -1 
0 0 -1 0 0 -1 0 0 -1 
0 0 -1 0 0 -1 0 0 -1 
0 0 -1 0 0 -1 0 0 -1 
0 -0.683941 -0.729537 0 -0.683941 -0.729537 0.0623783 0 -0.998053 
0.998053 0 -0.0623783 -0.0622573 0.0622573 -0.996117 -0.996117 0.0622573 -0.0622573 
0 0.0623783 -0.998053 0 0 -1 0 0 -1 
0 0 -1 0 0 -1 0 0 -1 
0 0 -1 0 0 -1 0 0 -1 
-0.683941 0 -0.729537 0.707107 0 -0.707107 0.998053 0 -0.0623783 
-0.0622573 0.996117 -0.0622573 -0.683231 0.72878 -0.0455488 -0.72878 0.683231 -0.0455488 
-0.0623783 0 -0.998053 0 0 -1 0 0 -1 
0 0 -1 0 0 -1 0 0 -1 
0 0 -1 0 0 -1 -0.683941 0 -0.729537 
0.564532 0.564532 -0.602168 0.0623783 0 -0.998053 0.998053 0 -0.0623783 
-0.0623783 0 -0.998053 -0.998053 0 -0.0623783 0 0 -1 
0 0 -1 0 0 -1 0 0 -1 
0 0 -1 0 0 -1 0 0 -1 
-0.683941 0 -0.729537 0.683941 0 -0.729537 0.0623783 0 -0.998053 
0.589368 -0.552532 -0.589368 -0.0623783 0 -0.998053 -0.998053 0 -0.0623783 
0 0 -1 0 0 -1 0 0 -1 
0 0 -1 0 0 -1 0 0 -1 
0 0 -1 -0.683941 0 -0.729537 0.564532 -0.564532 -0.602168 
0 -0.683941 -0.729537 0.552532 -0.589368 -0.589368 0 -0.0623783 -0.998053 
0.0622573 -0.0622573 -0.996117 0.0441511 -0.706417 -0.706417 0.996117 -0.0622573 -0.0622573 
-0.0622573 0.0622573 -0.996117 -0.996117 0.0622573 -0.0622573 0 0.0623783 -0.998053 
0 0 -1 0 0 -1 0 0 -1 
0 0 -1 0 0 -1 0 0 -1 
-0.683941 0 -0.729537 0.683941 0 -0.729537 0.0623783 0 -0.998053 
0.589368 -0.552532 -0.589368 -0.0622573 0.996117 -0.0622573 -0.683231 0.72878 -0.0455488 
-0.72878 0.683231 -0.0455488 -0.0623783 0 -0.998053 0 0 -1 
0 0 -1 0 0 -1 0 0 -1 
0 0 -1 0 0 -1 0 0.683941 -0.729537 
-0.564532 0.564532 -0.602168 0.683941 0 -0.729537 0 0 -1 
0.552532 -0.589368 -0.589368 0 -0.0623783 -0.998053 0.0622573 -0.0622573 -0.996117 
0.0441511 -0.706417 -0.706417 0.996117 -0.0622573 -0.0622573 -0.0622573 0.0622573 -0.996117 
-0.996117 0.0622573 -0.0622573 0 0.0623783 -0.998053 0 0 -1 
0 0 -1 0 0 -1 0 0 -1 
0 0 -1 0 0 -1 -0.683941 0 -0.729537 
0.683941 0 -0.729537 0 0 -1 0 0 -1 
0.0623783 0 -0.998053 0.589368 -0.552532 -0.589368 -0.0622573 0.996117 -0.0622573 
-0.683231 0.72878 -0.0455488 -0.72878 0.683231 -0.0455488 -0.0623783 0 -0.998053 
0 0 -1 0 0 -1 0 0 -1 
0 0 -1 0 0 -1 -0.683941 0 -0.729537 
0.564532 -0.564532 -0.602168 0 -0.683941 -0.729537 0 -0.683941 -0.729537 
0 -0.683941 -0.729537 0.552532 -0.589368 -0.589368 0 -0.707107 -0.707107 
0 -0.707107 -0.707107 0 -0.707107 -0.707107 0 -0.0623783 -0.998053 
0 -0.707107 -0.707107 0.0622573 -0.0622573 -0.996117 0.0622573 -0.996117 -0.0622573 
0.996117 -0.0622573 -0.0622573 -0.0622573 0.0622573 -0.996117 -0.996117 0.0622573 -0.0622573 
0 0.0623783 -0.998053 0 0.0623783 -0.998053 0 0.0623783 -0.998053 
0 0 -1 0 0 -1 -0.683941 0 -0.729537 
0.683941 0 -0.729537 0.0623783 0 -0.998053 0.72878 -0.683231 -0.0455488 
-0.0622573 0.996117 -0.0622573 0 0.998053 -0.0623783 0 0.998053 -0.0623783 
-0.552532 0.589368 -0.589368 -0.589368 0.552532 -0.589368 -0.0623783 0 -0.998053 
0 0 -1 0 0 -1 0 0.683941 -0.729537 
0 0.683941 -0.729537 0 0.683941 -0.729537 0 0.683941 -0.729537 
0 0.683941 -0.729537 -0.564532 0.564532 -0.602168 0.564532 -0.564532 -0.602168 
0 -0.683941 -0.729537 0.683231 -0.72878 -0.0455488 0 -0.707107 -0.707107 