# vtk DataFile Version 3.0
vtk output
ASCII
DATASET POLYDATA
POINTS 4850 float
117 120 43.0263 117 119.026 44 116.026 120 44 
118 120 43.0263 118 119.026 44 118.974 120 44 
116 121 43.0263 116 120.026 44 115.026 121 44 
117 121 43.0263 118 121 43.0263 118.974 121 44 
115 122 43.0263 115 121.026 44 114.026 122 44 
116 122 43.0263 117 122 43.0263 118 122 43.0263 
118.974 122 44 115 123 43.0263 114.026 123 44 
116 123 43.0263 117 123 43.0263 117.974 123 44 
118 122.974 44 115 123.974 44 116 123.974 44 
117 123.974 44 126 114 44.0263 126 113.026 45 
125.026 114 45 126.974 114 45 124 115 44.0263 
124 114.026 45 123.026 115 45 125 115 44.0263 
125 114.026 45 126 115 44.0263 126.974 115 45 
124 116 44.0263 123.026 116 45 124.974 116 45 
125 115.974 45 126 115.974 45 122 117 44.0263 
122 116.026 45 121.026 117 45 123 117 44.0263 
123 116.026 45 124 117 44.0263 124.974 117 45 
122 118 44.0263 121.026 118 45 122.974 118 45 
123 117.974 45 124 117.974 45 115 119 44.0263 
115 118.026 45 114.026 119 45 116 119 44.0263 
116 118.026 45 117 119 44.0263 117 118.026 45 
118 119 44.0263 118 118.026 45 118.974 119 45 
122 119 44.0263 121.026 119 45 122.974 119 45 
115 119.974 45 115.026 120 45 116 120 44.0263 
118.974 120 45 122 120 44.0263 121.026 120 45 
122.974 120 45 115 121 44.0263 115 120.026 45 
114.026 121 45 119 120.026 45 119 121 44.0263 
120 121 44.0263 120 120.026 45 120.974 121 45 
122 120.974 45 114.026 122 45 118.974 122 45 
119 121.974 45 120 121.974 45 114.026 123 45 
117.974 123 45 118 122.974 45 115 123.974 45 
116 123.974 45 117 123.974 45 123 112 45.0263 
123 111.026 46 122.026 112 46 124 112 45.0263 
124 111.026 46 124.974 112 46 122 113 45.0263 
122 112.026 46 121.026 113 46 123 113 45.0263 
124 113 45.0263 124.974 113 46 126 113 45.0263 
126 112.026 46 125.026 113 46 126.974 113 46 
119 114 45.0263 119 113.026 46 118.026 114 46 
120 114 45.0263 120 113.026 46 121 114 45.0263 
121 113.026 46 122 114 45.0263 123 114 45.0263 
124 114 45.0263 125 113.026 46 125 114 45.0263 
127 114 45.0263 127 113.026 46 128 114 45.0263 
128 113.026 46 128.974 114 46 118 115 45.0263 
118 114.026 46 117.026 115 46 119 115 45.0263 
120 115 45.0263 121 115 45.0263 122 115 45.0263 
123 115 45.0263 127 115 45.0263 127.974 115 46 
128 114.974 46 117 116 45.0263 117 115.026 46 
116.026 116 46 118 116 45.0263 119 116 45.0263 
120 116 45.0263 121 116 45.0263 122 116 45.0263 
123 116 45.0263 125 116 45.0263 126 116 45.0263 
126.974 116 46 127 115.974 46 116 117 45.0263 
116 116.026 46 115.026 117 46 117 117 45.0263 
118 117 45.0263 119 117 45.0263 120 117 45.0263 
121 117 45.0263 125 117 45.0263 126 117 45.0263 
126.974 117 46 115 118 45.0263 115 117.026 46 
114.026 118 46 116 118 45.0263 117 118 45.0263 
118 118 45.0263 119 118 45.0263 120 118 45.0263 
121 118 45.0263 123 118 45.0263 124 118 45.0263 
125 118 45.0263 126 118 45.0263 126.974 118 46 
114.026 119 46 119 119 45.0263 120 119 45.0263 
121 119 45.0263 123 119 45.0263 124 119 45.0263 
125 119 45.0263 125.974 119 46 126 118.974 46 
115 120 45.0263 114.026 120 46 119 120 45.0263 
120 120 45.0263 121 120 45.0263 123 120 45.0263 
124 120 45.0263 124.974 120 46 125 119.974 46 
114.026 121 46 121 121 45.0263 122 121 45.0263 
123 121 45.0263 123.974 121 46 124 120.974 46 
114.026 122 46 119 122 45.0263 120 122 45.0263 
120.974 122 46 121 121.974 46 122 121.974 46 
123 121.974 46 114.026 123 46 118 123 45.0263 
119 123 45.0263 119.974 123 46 120 122.974 46 
115 124 45.0263 114.026 124 46 116 124 45.0263 
116.974 124 46 117 123.974 46 118 123.974 46 
119 123.974 46 115 125 45.0263 114.026 125 46 
115.974 125 46 116 124.974 46 115 125.974 46 
123 111.026 47 122.026 112 47 124 111.026 47 
124.974 112 47 126 112 46.0263 126 111.026 47 
125.026 112 47 126.974 112 47 122 112.026 47 
121.026 113 47 125 112.026 47 125 113 46.0263 
127 113 46.0263 127 112.026 47 127.974 113 47 
119 113.026 47 118.026 114 47 120 113.026 47 
121 113.026 47 128 113.026 47 128.974 114 47 
118 114.026 47 117.026 115 47 128 115 46.0263 
128.974 115 47 117 115.026 47 116.026 116 47 
126.974 116 47 127 115.974 47 128 115.974 47 
116 116.026 47 115.026 117 47 126.974 117 47 
115 117.026 47 114.026 118 47 126.974 118 47 
114.026 119 47 126 119 46.0263 126.974 119 47 
114.026 120 47 124.974 120 47 125 119.974 47 
126 119.974 47 114.026 121 47 124 121 46.0263 
124.974 121 47 114.026 122 47 120.974 122 47 
121 121.974 47 122 121.974 47 123 121.974 47 
124 121.974 47 114 123 46.0263 114 122.026 47 
113.026 123 47 119.974 123 47 120 122.974 47 
114 124 46.0263 113.026 124 47 116.974 124 47 
117 123.974 47 118 123.974 47 119 123.974 47 
114 125 46.0263 113.026 125 47 115.974 125 47 
116 124.974 47 114 125.974 47 115 125.974 47 
123 111.026 48 122.026 112 48 124 111.026 48 
125 112 47.0263 125 111.026 48 126 111.026 48 
127 112 47.0263 127 111.026 48 128 112 47.0263 
128 111.026 48 128.974 112 48 122 112.026 48 
121.026 113 48 128 113 47.0263 128.974 113 48 
119 113.026 48 118.026 114 48 120 113.026 48 
121 113.026 48 129 114 47.0263 129 113.026 48 
130 114 47.0263 130 113.026 48 130.974 114 48 
118 114.026 48 117.026 115 48 129 115 47.0263 
129.974 115 48 130 114.974 48 117 115.026 48 
116.026 116 48 127 116 47.0263 128 116 47.0263 
128.974 116 48 129 115.974 48 116 116.026 48 
115.026 117 48 127 117 47.0263 128 117 47.0263 
128.974 117 48 115 117.026 48 114.026 118 48 
127 118 47.0263 128 118 47.0263 128.974 118 48 
114.026 119 48 127 119 47.0263 127.974 119 48 
128 118.974 48 114.026 120 48 125 120 47.0263 
126 120 47.0263 126.974 120 48 127 119.974 48 
114.026 121 48 125 121 47.0263 125.974 121 48 
126 120.974 48 114.026 122 48 121 122 47.0263 
122 122 47.0263 123 122 47.0263 124 122 47.0263 
124.974 122 48 125 121.974 48 114 122.026 48 
113.026 123 48 120 123 47.0263 121 123 47.0263 
122 123 47.0263 123 123 47.0263 123.974 123 48 
124 122.974 48 113 124 47.0263 113 123.026 48 
112.026 124 48 116.974 124 48 117 123.974 48 
118 123.974 48 119 123.974 48 120 123.974 48 
121 123.974 48 122 123.974 48 123 123.974 48 
113 125 47.0263 112.026 125 48 115.974 125 48 
116 124.974 48 113 125.974 48 114 125.974 48 
115 125.974 48 127 109 48.0263 127 108.026 49 
126.026 109 49 127.974 109 49 127 109.974 49 
128 109.026 49 127.026 110 49 128 110 48.0263 
128.974 110 49 122 111 48.0263 122 110.026 49 
121.026 111 49 123 111 48.0263 123 110.026 49 
124 111 48.0263 124 110.026 49 125 111 48.0263 
125 110.026 49 126 111 48.0263 126 110.026 49 
127 111 48.0263 127 110.026 49 128 111 48.0263 
128.974 111 49 122 112 48.0263 121.026 112 49 
128.974 112 49 118 113 48.0263 118 112.026 49 
117.026 113 49 119 113 48.0263 119 112.026 49 
120 113 48.0263 120 112.026 49 121 113 48.0263 
121 112.026 49 129 112.026 49 129 113 48.0263 
129.974 113 49 118 114 48.0263 117.026 114 49 
130 113.026 49 130.974 114 49 116 115 48.0263 
116 114.026 49 115.026 115 49 117 115 48.0263 
117 114.026 49 129.974 115 49 130 114.974 49 
116 116 48.0263 115.026 116 49 128.974 116 49 
129 115.974 49 114 117 48.0263 114 116.026 49 
113.026 117 49 115 117 48.0263 115 116.026 49 
128.974 117 49 114 118 48.0263 113.026 118 49 
128.974 118 49 114 119 48.0263 113.026 119 49 
127.974 119 49 128 118.974 49 114 120 48.0263 
113.026 120 49 126.974 120 49 127 119.974 49 
114 121 48.0263 113.026 121 49 125.974 121 49 
126 120.974 49 114 122 48.0263 113.026 122 49 
124.974 122 49 125 121.974 49 112 123 48.0263 
112 122.026 49 111.026 123 49 113 123 48.0263 
113 122.026 49 123.974 123 49 124 122.974 49 
112 124 48.0263 111.026 124 49 116 124 48.9737 
115.974 124 49 116 123.974 49 117 123.974 49 
118 123.974 49 119 123.974 49 120 123.974 49 
121 123.974 49 122 123.974 49 123 123.974 49 
112 124.974 49 113 124.974 49 113 125 48.9737 
114 124.974 49 114 125 48.9737 115 124.974 49 
115 125 48.9737 127 108 49.0263 127 107.026 50 
126.026 108 50 128 108 49.0263 128 107.026 50 
128.974 108 50 122 109 49.0263 122 108.026 50 
121.026 109 50 122.974 109 50 126 109 49.0263 
126 108.026 50 125.026 109 50 128 109 49.0263 
128.974 109 50 117 110 49.0263 117 109.026 50 
116.026 110 50 118 110 49.0263 118 109.026 50 
119 110 49.0263 119 109.026 50 120 110 49.0263 
120 109.026 50 121 110 49.0263 121 109.026 50 
122 110 49.0263 123 109.026 50 123 110 49.0263 
124 110 49.0263 124 109.026 50 125 110 49.0263 
125 109.026 50 126 110 49.0263 127 110 49.0263 
129 110 49.0263 129 109.026 50 130 110 49.0263 
130 109.026 50 130.974 110 50 114 111 49.0263 
114 110.026 50 113.026 111 50 114.974 111 50 
116 111 49.0263 116 110.026 50 115.026 111 50 
117 111 49.0263 118 111 49.0263 119 111 49.0263 
120 111 49.0263 121 111 49.0263 129 111 49.0263 
130 111 49.0263 130.974 111 50 113 112 49.0263 
113 111.026 50 112.026 112 50 114 112 49.0263 
115 111.026 50 115 112 49.0263 116 112 49.0263 
117 112 49.0263 118 112 49.0263 119 112 49.0263 
120 112 49.0263 121 112 49.0263 129 112 49.0263 
130 112 49.0263 130.974 112 50 113 113 49.0263 
112.026 113 50 114 113 49.0263 115 113 49.0263 
116 113 49.0263 117 113 49.0263 130 113 49.0263 
130.974 113 50 113 114 49.0263 112.026 114 50 
114 114 49.0263 115 114 49.0263 116 114 49.0263 
117 114 49.0263 130.974 114 50 113 115 49.0263 
112.026 115 50 114 115 49.0263 115 115 49.0263 
129.974 115 50 130 114.974 50 113 116 49.0263 
112.026 116 50 114 116 49.0263 115 116 49.0263 
128.974 116 50 129 115.974 50 112 117 49.0263 
112 116.026 50 111.026 117 50 113 117 49.0263 
128.974 117 50 111 118 49.0263 111 117.026 50 
110.026 118 50 112 118 49.0263 113 118 49.0263 
128.974 118 50 111 119 49.0263 110.026 119 50 
112 119 49.0263 113 119 49.0263 127.974 119 50 
128 118.974 50 111 120 49.0263 110.026 120 50 
112 120 49.0263 113 120 49.0263 126.974 120 50 
127 119.974 50 111 121 49.0263 110.026 121 50 
112 121 49.0263 113 121 49.0263 125.974 121 50 
126 120.974 50 111 122 49.0263 110.026 122 50 
112 122 49.0263 113 122 49.0263 124.974 122 50 
125 121.974 50 111 123 49.0263 110.026 123 50 
123.974 123 50 124 122.974 50 111 124 49.0263 
110.026 124 50 113 124 49.9737 112.974 124 50 
[...]
POINT_DATA 4850
SCALARS scalars float
LOOKUP_TABLE default
1 1 1 1 1 1 1 1 1 
1 1 1 1 1 1 1 1 1 
1 1 1 1 1 1 1 1 1 
1 1 1 1 1 1 1 1 1 
1 1 1 1 1 1 1 1 1 
1 1 1 1 1 1 1 1 1 
1 1 1 1 1 1 1 1 1 
1 1 1 1 1 1 1 1 1 
1 1 1 1 1 1 1 1 1 
1 1 1 1 1 1 1 1 1 
1 1 1 1 1 1 1 1 1 
1 1 1 1 1 1 1 1 1 
1 1 1 1 1 1 1 1 1 
1 1 1 1 1 1 1 1 1 
1 1 1 1 1 1 1 1 1 
1 1 1 1 1 1 1 1 1 
1 1 1 1 1 1 1 1 1 
1 1 1 1 1 1 1 1 1 
1 1 1 1 1 1 1 1 1 
1 1 1 1 1 1 1 1 1 
1 1 1 1 1 1 1 1 1 
1 1 1 1 1 1 1 1 1 
1 1 1 1 1 1 1 1 1 
1 1 1 1 1 1 1 1 1 
1 1 1 1 1 1 1 1 1 
1 1 1 1 1 1 1 1 1 
1 1 1 1 1 1 1 1 1 
1 1 1 1 1 1 1 1 1 
1 1 1 1 1 1 1 1 1 
1 1 1 1 1 1 1 1 1 
1 1 1 1 1 1 1 1 1 
1 1 1 1 1 1 1 1 1 
1 1 1 1 1 1 1 1 1 
1 1 1 1 1 1 1 1 1 
1 1 1 1 1 1 1 1 1 
1 1 1 1 1 1 1 1 1 
1 1 1 1 1 1 1 1 1 
1 1 1 1 1 1 1 1 1 
1 1 1 1 1 1 1 1 1 
1 1 1 1 1 1 1 1 1 
1 1 1 1 1 1 1 1 1 
1 1 1 1 1 1 1 1 1 
1 1 1 1 1 1 1 1 1 
1 1 1 1 1 1 1 1 1 
1 1 1 1 1 1 1 1 1 
1 1 1 1 1 1 1 1 1 
1 1 1 1 1 1 1 1 1 
1 1 1 1 1 1 1 1 1 
1 1 1 1 1 1 1 1 1 
1 1 1 1 1 1 1 1 1 
1 1 1 1 1 1 1 1 1 
1 1 1 1 1 1 1 1 1 
1 1 1 1 1 1 1 1 1 
1 1 1 1 1 1 1 1 1 
1 1 1 1 1 1 1 1 1 
1 1 1 1 1 1 1 1 1 
1 1 1 1 1 1 1 1 1 
1 1 1 1 1 1 1 1 1 
1 1 1 1 1 1 1 1 1 
1 1 1 1 1 1 1 1 1 
1 1 1 1 1 1 1 1 1 
1 1 1 1 1 1 1 1 1 
1 1 1 1 1 1 1 1 1 
1 1 1 1 1 1 1 1 1 
1 1 1 1 1 1 1 1 1 
1 1 1 1 1 1 1 1 1 
1 1 1 1 1 1 1 1 1 
1 1 1 1 1 1 1 1 1 
1 1 1 1 1 1 1 1 1 
1 1 1 1 1 1 1 1 1 
1 1 1 1 1 1 1 1 1 
1 1 1 1 1 1 1 1 1 
1 1 1 1 1 1 1 1 1 
1 1 1 1 1 1 1 1 1 
1 1 1 1 1 1 1 1 1 
1 1 1 1 1 1 1 1 1 
1 1 1 1 1 1 1 1 1 
1 1 1 1 1 1 1 1 1 
1 1 1 1 1 1 1 1 1 
1 1 1 1 1 1 1 1 1 
1 1 1 1 1 1 1 1 1 
1 1 1 1 1 1 1 1 1 
1 1 1 1 1 1 1 1 1 
1 1 1 1 1 1 1 1 1 
1 1 1 1 1 1 1 1 1 
1 1 1 1 1 1 1 1 1 
1 1 1 1 1 1 1 1 1 
1 1 1 1 1 1 1 1 1 
1 1 1 1 1 1 1 1 1 
1 1 1 1 1 1 1 1 1 
1 1 1 1 1 1 1 1 1 
1 1 1 1 1 1 1 1 1 
1 1 1 1 1 1 1 1 1 
1 1 1 1 1 1 1 1 1 
1 1 1 1 1 1 1 1 1 
1 1 1 1 1 1 1 1 1 
1 1 1 1 1 1 1 1 1 
1 1 1 1 1 1 1 1 1 
1 1 1 1 1 1 1 1 1 
1 1 1 1 1 1 1 1 1 
1 1 1 1 1 1 1 1 1 
1 1 1 1 1 1 1 1 1 
1 1 1 1 1 1 1 1 1 
1 1 1 1 1 1 1 1 1 
1 1 1 1 1 1 1 1 1 
1 1 1 1 1 1 1 1 1 
1 1 1 1 1 1 1 1 1 
1 1 1 1 1 1 1 1 1 
1 1 1 1 1 1 1 1 1 
1 1 1 1 1 1 1 1 1 
1 1 1 1 1 1 1 1 1 
1 1 1 1 1 1 1 1 1 
1 1 1 1 1 1 1 1 1 
1 1 1 1 1 1 1 1 1 
1 1 1 1 1 1 1 1 1 
1 1 1 1 1 1 1 1 1 
1 1 1 1 1 1 1 1 1 
1 1 1 1 1 1 1 1 1 
1 1 1 1 1 1 1 1 1 
1 1 1 1 1 1 1 1 1 
1 1 1 1 1 1 1 1 1 
1 1 1 1 1 1 1 1 1 
1 1 1 1 1 1 1 1 1 
1 1 1 1 1 1 1 1 1 
1 1 1 1 1 1 1 1 1 
1 1 1 1 1 1 1 1 1 
1 1 1 1 1 1 1 1 1 
1 1 1 1 1 1 1 1 1 
1 1 1 1 1 1 1 1 1 
1 1 1 1 1 1 1 1 1 
1 1 1 1 1 1 1 1 1 
1 1 1 1 1 1 1 1 1 
1 1 1 1 1 1 1 1 1 
1 1 1 1 1 1 1 1 1 
1 1 1 1 1 1 1 1 1 
1 1 1 1 1 1 1 1 1 
1 1 1 1 1 1 1 1 1 
1 1 1 1 1 1 1 1 1 
1 1 1 1 1 1 1 1 1 
1 1 1 1 1 1 1 1 1 
1 1 1 1 1 1 1 1 1 
1 1 1 1 1 1 1 1 1 
1 1 1 1 1 1 1 1 1 
1 1 1 1 1 1 1 1 1 
1 1 1 1 1 1 1 1 1 
1 1 1 1 1 1 1 1 1 
1 1 1 1 1 1 1 1 1 
1 1 1 1 1 1 1 1 1 
1 1 1 1 1 1 1 1 1 
1 1 1 1 1 1 1 1 1 
1 1 1 1 1 1 1 1 1 
1 1 1 1 1 1 1 1 1 
1 1 1 1 1 1 1 1 1 
1 1 1 1 1 1 1 1 1 
1 1 1 1 1 1 1 1 1 
1 1 1 1 1 1 1 1 1 
1 1 1 1 1 1 1 1 1 
1 1 1 1 1 1 1 1 1 
1 1 1 1 1 1 1 1 1 
1 1 1 1 1 1 1 1 1 
1 1 1 1 1 1 1 1 1 
1 1 1 1 1 1 1 1 1 
1 1 1 1 1 1 1 1 1 
1 1 1 1 1 1 1 1 1 
1 1 1 1 1 1 1 1 1 
1 1 1 1 1 1 1 1 1 
1 1 1 1 1 1 1 1 1 
1 1 1 1 1 1 1 1 1 
1 1 1 1 1 1 1 1 1 
1 1 1 1 1 1 1 1 1 
1 1 1 1 1 1 1 1 1 
1 1 1 1 1 1 1 1 1 
1 1 1 1 1 1 1 1 1 
1 1 1 1 1 1 1 1 1 
1 1 1 1 1 1 1 1 1 
1 1 1 1 1 1 1 1 1 
1 1 1 1 1 1 1 1 1 
1 1 1 1 1 1 1 1 1 
1 1 1 1 1 1 1 1 1 
1 1 1 1 1 1 1 1 1 
1 1 1 1 1 1 1 1 1 
1 1 1 1 1 1 1 1 1 
1 1 1 1 1 1 1 1 1 
1 1 1 1 1 1 1 1 1 
1 1 1 1 1 1 1 1 1 
1 1 1 1 1 1 1 1 1 
1 1 1 1 1 1 1 1 1 
1 1 1 1 1 1 1 1 1 
1 1 1 1 1 1 1 1 1 
1 1 1 1 1 1 1 1 1 
1 1 1 1 1 1 1 1 1 
1 1 1 1 1 1 1 1 1 
1 1 1 1 1 1 1 1 1 
1 1 1 1 1 1 1 1 1 
1 1 1 1 1 1 1 1 1 
1 1 1 1 1 1 1 1 1 
1 1 1 1 1 1 1 1 1 
1 1 1 1 1 1 1 1 1 
1 1 1 1 1 1 1 1 1 
1 1 1 1 1 1 1 1 1 
1 1 1 1 1 1 1 1 1 
1 1 1 1 1 1 1 1 1 
1 1 1 1 1 1 1 1 1 
1 1 1 1 1 1 1 1 1 
1 1 1 1 1 1 1 1 1 
1 1 1 1 1 1 1 1 1 
1 1 1 1 1 1 1 1 1 
1 1 1 1 1 1 1 1 1 
1 1 1 1 1 1 1 1 1 
1 1 1 1 1 1 1 1 1 
1 1 1 1 1 1 1 1 1 
1 1 1 1 1 1 1 1 1 
1 1 1 1 1 1 1 1 1 
1 1 1 1 1 1 1 1 1 
1 1 1 1 1 1 1 1 1 
1 1 1 1 1 1 1 1 1 
1 1 1 1 1 1 1 1 1 
1 1 1 1 1 1 1 1 1 
1 1 1 1 1 1 1 1 1 
1 1 1 1 1 1 1 1 1 
1 1 1 1 1 1 1 1 1 
1 1 1 1 1 1 1 1 1 
1 1 1 1 1 1 1 1 1 
1 1 1 1 1 1 1 1 1 
1 1 1 1 1 1 1 1 1 
1 1 1 1 1 1 1 1 1 
1 1 1 1 1 1 1 1 1 
1 1 1 1 1 1 1 1 1 
1 1 1 1 1 1 1 1 1 
1 1 1 1 1 1 1 1 1 
1 1 1 1 1 1 1 1 1 
1 1 1 1 1 1 1 1 1 
1 1 1 1 1 1 1 1 1 
1 1 1 1 1 1 1 1 1 
1 1 1 1 1 1 1 1 1 
1 1 1 1 1 1 1 1 1 
1 1 1 1 1 1 1 1 1 
1 1 1 1 1 1 1 1 1 
1 1 1 1 1 1 1 1 1 
1 1 1 1 1 1 1 1 1 
1 1 1 1 1 1 1 1 1 
1 1 1 1 1 1 1 1 1 
1 1 1 1 1 1 1 1 1 
1 1 1 1 1 1 1 1 1 
1 1 1 1 1 1 1 1 1 
1 1 1 1 1 1 1 1 1 
1 1 1 1 1 1 1 1 1 
1 1 1 1 1 1 1 1 1 
1 1 1 1 1 1 1 1 1 
1 1 1 1 1 1 1 1 1 
1 1 1 1 1 1 1 1 1 
1 1 1 1 1 1 1 1 1 
1 1 1 1 1 1 1 1 1 
1 1 1 1 1 1 1 1 1 
1 1 1 1 1 1 1 1 1 
1 1 1 1 1 1 1 1 1 
1 1 1 1 1 1 1 1 1 
1 1 1 1 1 1 1 1 1 
1 1 1 1 1 1 1 1 1 
1 1 1 1 1 1 1 1 1 
1 1 1 1 1 1 1 1 1 
1 1 1 1 1 1 1 1 1 
1 1 1 1 1 1 1 1 1 
1 1 1 1 1 1 1 1 1 
1 1 1 1 1 1 1 1 1 
1 1 1 1 1 1 1 1 1 
1 1 1 1 1 1 1 1 1 
1 1 1 1 1 1 1 1 1 
1 1 1 1 1 1 1 1 1 
1 1 1 1 1 1 1 1 1 
1 1 1 1 1 1 1 1 1 
1 1 1 1 1 1 1 1 1 
1 1 1 1 1 1 1 1 1 
1 1 1 1 1 1 1 1 1 
1 1 1 1 1 1 1 1 1 
1 1 1 1 1 1 1 1 1 
1 1 1 1 1 1 1 1 1 
1 1 1 1 1 1 1 1 1 
1 1 1 1 1 1 1 1 1 
1 1 1 1 1 1 1 1 1 
1 1 1 1 1 1 1 1 1 
1 1 1 1 1 1 1 1 1 
1 1 1 1 1 1 1 1 1 
1 1 1 1 1 1 1 1 1 
1 1 1 1 1 1 1 1 1 
1 1 1 1 1 1 1 1 1 
1 1 1 1 1 1 1 1 1 
1 1 1 1 1 1 1 1 1 
1 1 1 1 1 1 1 1 1 
1 1 1 1 1 1 1 1 1 
1 1 1 1 1 1 1 1 1 
1 1 1 1 1 1 1 1 1 
1 1 1 1 1 1 1 1 1 
1 1 1 1 1 1 1 1 1 
1 1 1 1 1 1 1 1 1 
1 1 1 1 1 1 1 1 1 
1 1 1 1 1 1 1 1 1 
1 1 1 1 1 1 1 1 1 
1 1 1 1 1 1 1 1 1 
1 1 1 1 1 1 1 1 1 
1 1 1 1 1 1 1 1 1 
1 1 1 1 1 1 1 1 1 
1 1 1 1 1 1 1 1 1 
1 1 1 1 1 1 1 1 1 
1 1 1 1 1 1 1 1 1 
1 1 1 1 1 1 1 1 1 
1 1 1 1 1 1 1 1 1 
1 1 1 1 1 1 1 1 1 
1 1 1 1 1 1 1 1 1 
1 1 1 1 1 1 1 1 1 
1 1 1 1 1 1 1 1 1 
1 1 1 1 1 1 1 1 1 
1 1 1 1 1 1 1 1 1 
1 1 1 1 1 1 1 1 1 
1 1 1 1 1 1 1 1 1 
1 1 1 1 1 1 1 1 1 
1 1 1 1 1 1 1 1 1 
1 1 1 1 1 1 1 1 1 
1 1 1 1 1 1 1 1 1 
1 1 1 1 1 1 1 1 1 
1 1 1 1 1 1 1 1 1 
1 1 1 1 1 1 1 1 1 
1 1 1 1 1 1 1 1 1 
1 1 1 1 1 1 1 1 1 
1 1 1 1 1 1 1 1 1 
1 1 1 1 1 1 1 1 1 
1 1 1 1 1 1 1 1 1 
1 1 1 1 1 1 1 1 1 
1 1 1 1 1 1 1 1 1 
1 1 1 1 1 1 1 1 1 
1 1 1 1 1 1 1 1 1 
1 1 1 1 1 1 1 1 1 
1 1 1 1 1 1 1 1 1 
1 1 1 1 1 1 1 1 1 
1 1 1 1 1 1 1 1 1 
1 1 1 1 1 1 1 1 1 
1 1 1 1 1 1 1 1 1 
1 1 1 1 1 1 1 1 1 
1 1 1 1 1 1 1 1 1 
1 1 1 1 1 1 1 1 1 
1 1 1 1 1 1 1 1 1 
1 1 1 1 1 1 1 1 1 
1 1 1 1 1 1 1 1 1 
1 1 1 1 1 1 1 1 1 
1 1 1 1 1 1 1 1 1 
1 1 1 1 1 1 1 1 1 
1 1 1 1 1 1 1 1 1 
1 1 1 1 1 1 1 1 1 
1 1 1 1 1 1 1 1 1 
1 1 1 1 1 1 1 1 1 
1 1 1 1 1 1 1 1 1 
1 1 1 1 1 1 1 1 1 
1 1 1 1 1 1 1 1 1 
1 1 1 1 1 1 1 1 1 
1 1 1 1 1 1 1 1 1 
1 1 1 1 1 1 1 1 1 
1 1 1 1 1 1 1 1 1 
1 1 1 1 1 1 1 1 1 
1 1 1 1 1 1 1 1 1 
1 1 1 1 1 1 1 1 1 
1 1 1 1 1 1 1 1 1 
1 1 1 1 1 1 1 1 1 
1 1 1 1 1 1 1 1 1 
1 1 1 1 1 1 1 1 1 
1 1 1 1 1 1 1 1 1 
1 1 1 1 1 1 1 1 1 
1 1 1 1 1 1 1 1 1 
1 1 1 1 1 1 1 1 1 
1 1 1 1 1 1 1 1 1 
1 1 1 1 1 1 1 1 1 
1 1 1 1 1 1 1 1 1 
1 1 1 1 1 1 1 1 1 
1 1 1 1 1 1 1 1 1 
1 1 1 1 1 1 1 1 1 
1 1 1 1 1 1 1 1 1 
1 1 1 1 1 1 1 1 1 
1 1 1 1 1 1 1 1 1 
1 1 1 1 1 1 1 1 1 
1 1 1 1 1 1 1 1 1 
1 1 1 1 1 1 1 1 1 
1 1 1 1 1 1 1 1 1 
1 1 1 1 1 1 1 1 1 
1 1 1 1 1 1 1 1 1 
1 1 1 1 1 1 1 1 1 
1 1 1 1 1 1 1 1 1 
1 1 1 1 1 1 1 1 1 
1 1 1 1 1 1 1 1 1 
1 1 1 1 1 1 1 1 1 
1 1 1 1 1 1 1 1 1 
1 1 1 1 1 1 1 1 1 
1 1 1 1 1 1 1 1 1 
1 1 1 1 1 1 1 1 1 
1 1 1 1 1 1 1 1 1 
1 1 1 1 1 1 1 1 1 
1 1 1 1 1 1 1 1 1 
1 1 1 1 1 1 1 1 1 
1 1 1 1 1 1 1 1 1 
1 1 1 1 1 1 1 1 1 
1 1 1 1 1 1 1 1 1 
1 1 1 1 1 1 1 1 1 
1 1 1 1 1 1 1 1 1 
1 1 1 1 1 1 1 1 1 
1 1 1 1 1 1 1 1 1 
1 1 1 1 1 1 1 1 1 
1 1 1 1 1 1 1 1 1 
1 1 1 1 1 1 1 1 1 
1 1 1 1 1 1 1 1 1 
1 1 1 1 1 1 1 1 1 
1 1 1 1 1 1 1 1 1 
1 1 1 1 1 1 1 1 1 
1 1 1 1 1 1 1 1 1 
1 1 1 1 1 1 1 1 1 
1 1 1 1 1 1 1 1 1 
1 1 1 1 1 1 1 1 1 
1 1 1 1 1 1 1 1 1 
1 1 1 1 1 1 1 1 1 
1 1 1 1 1 1 1 1 1 
1 1 1 1 1 1 1 1 1 
1 1 1 1 1 1 1 1 1 
1 1 1 1 1 1 1 1 1 
1 1 1 1 1 1 1 1 1 
1 1 1 1 1 1 1 1 1 
1 1 1 1 1 1 1 1 1 
1 1 1 1 1 1 1 1 1 
1 1 1 1 1 1 1 1 1 
1 1 1 1 1 1 1 1 1 
1 1 1 1 1 1 1 1 1 
1 1 1 1 1 1 1 1 1 
1 1 1 1 1 1 1 1 1 
1 1 1 1 1 1 1 1 1 
1 1 1 1 1 1 1 1 1 
1 1 1 1 1 1 1 1 1 
1 1 1 1 1 1 1 1 1 
1 1 1 1 1 1 1 1 1 
1 1 1 1 1 1 1 1 1 
1 1 1 1 1 1 1 1 1 
1 1 1 1 1 1 1 1 1 
1 1 1 1 1 1 1 1 1 
1 1 1 1 1 1 1 1 1 
1 1 1 1 1 1 1 1 1 
1 1 1 1 1 1 1 1 1 
1 1 1 1 1 1 1 1 1 
1 1 1 1 1 1 1 1 1 
1 1 1 1 1 1 1 1 1 
1 1 1 1 1 1 1 1 1 
1 1 1 1 1 1 1 1 1 
1 1 1 1 1 1 1 1 1 
1 1 1 1 1 1 1 1 1 
1 1 1 1 1 1 1 1 1 
1 1 1 1 1 1 1 1 1 
1 1 1 1 1 1 1 1 1 
1 1 1 1 1 1 1 1 1 
1 1 1 1 1 1 1 1 1 
1 1 1 1 1 1 1 1 1 
1 1 1 1 1 1 1 1 1 
1 1 1 1 1 1 1 1 1 
1 1 1 1 1 1 1 1 1 
1 1 1 1 1 1 1 1 1 
1 1 1 1 1 1 1 1 1 
1 1 1 1 1 1 1 1 1 
1 1 1 1 1 1 1 1 1 
1 1 1 1 1 1 1 1 1 
1 1 1 1 1 1 1 1 1 
1 1 1 1 1 1 1 1 1 
1 1 1 1 1 1 1 1 1 
1 1 1 1 1 1 1 1 1 
1 1 1 1 1 1 1 1 1 
1 1 1 1 1 1 1 1 1 
1 1 1 1 1 1 1 1 1 
1 1 1 1 1 1 1 1 1 
1 1 1 1 1 1 1 1 1 
1 1 1 1 1 1 1 1 1 
1 1 1 1 1 1 1 1 1 
1 1 1 1 1 1 1 1 1 
1 1 1 1 1 1 1 1 1 
1 1 1 1 1 1 1 1 1 
1 1 1 1 1 1 1 1 1 
1 1 1 1 1 1 1 1 1 
1 1 1 1 1 1 1 1 1 
1 1 1 1 1 1 1 1 1 
1 1 1 1 1 1 1 1 1 
1 1 1 1 1 1 1 1 1 
1 1 1 1 1 1 1 1 1 
1 1 1 1 1 1 1 1 1 
1 1 1 1 1 1 1 1 1 
1 1 1 1 1 1 1 1 1 
1 1 1 1 1 1 1 1 1 
1 1 1 1 1 1 1 1 1 
1 1 1 1 1 1 1 1 1 
1 1 1 1 1 1 1 1 1 
1 1 1 1 1 1 1 1 1 
1 1 1 1 1 1 1 1 1 
1 1 1 1 1 1 1 1 1 
1 1 1 1 1 1 1 1 1 
1 1 1 1 1 1 1 1 1 
1 1 1 1 1 1 1 1 1 
1 1 1 1 1 1 1 1 1 
1 1 1 1 1 1 1 1 1 
1 1 1 1 1 1 1 1 1 
1 1 1 1 1 1 1 1 1 
1 1 1 1 1 1 1 1 1 
1 1 1 1 1 1 1 1 1 
1 1 1 1 1 1 1 1 1 
1 1 1 1 1 1 1 1 1 
1 1 1 1 1 1 1 1 1 
1 1 1 1 1 1 1 1 1 
1 1 1 1 1 1 1 1 1 
1 1 1 1 1 1 1 1 1 
1 1 1 1 1 1 1 1 1 
1 1 1 1 1 1 1 1 1 
1 1 1 1 1 1 1 1 1 
1 1 1 1 1 1 1 1 1 
1 1 1 1 1 1 1 1 1 
1 1 1 1 1 1 1 1 1 
1 1 1 1 1 1 1 1 1 
1 1 1 1 1 1 1 1 1 
1 1 1 1 1 1 1 1 1 
1 1 1 1 1 1 1 1 1 
1 1 1 1 1 1 1 1 1 
1 1 1 1 1 1 1 1 1 
1 1 1 1 1 1 1 1 1 
1 1 1 1 1 1 1 1 1 
1 1 1 1 1 1 1 1 1 
1 1 1 1 1 1 1 1 1 
1 1 1 1 1 1 1 1 1 
1 1 1 1 1 1 1 1 1 
1 1 1 1 1 1 1 1 1 
1 1 1 1 1 1 1 1 1 
1 1 1 1 1 1 1 1 1 
1 1 1 1 1 1 1 1 1 
1 1 1 1 1 1 1 1 1 
1 1 1 1 1 1 1 1 1 
1 1 1 1 1 1 1 1 1 
1 1 1 1 1 1 1 1 1 
1 1 1 1 1 1 1 1 1 
1 1 1 1 1 1 1 1 1 
1 1 1 1 1 1 1 1 1 
1 1 1 1 1 1 1 1 1 
1 1 1 1 1 1 1 1 
NORMALS normals float
-0.0262976 -0.0262976 -0.999308 -0.0186049 -0.706984 -0.706984 -0.57735 -0.57735 -0.57735 
0.0262976 -0.0262976 -0.999308 0.0186049 -0.706984 -0.706984 0.999308 -0.0262976 -0.0262976 
-0.0262976 -0.0262976 -0.999308 -0.57735 -0.57735 -0.57735 -0.57735 -0.57735 -0.57735 
0 0 -1 0.0263067 0 -0.999654 0.707107 0 -0.707107 
-0.0262976 -0.0262976 -0.999308 -0.57735 -0.57735 -0.57735 -0.999308 -0.0262976 -0.0262976 
0 0 -1 0 0 -1 0.0262976 0.0262976 -0.999308 
0.999308 0.0262976 -0.0262976 -0.0262976 0.0262976 -0.999308 -0.999308 0.0262976 -0.0262976 
0 0.0263067 -0.999654 0.0262976 0.0262976 -0.999308 0.706984 0.706984 -0.0186049 
0.706984 0.706984 -0.0186049 -0.0262976 0.999308 -0.0262976 0 0.999654 -0.0263067 
0.0262976 0.999308 -0.0262976 0 -0.0263067 -0.999654 0 -0.707107 -0.707107 
-0.567087 -0.582414 -0.582414 0.697493 -0.0188512 -0.716344 -0.0262976 -0.0262976 -0.999308 
-0.0186049 -0.706984 -0.706984 -0.706984 -0.0186049 -0.706984 0 0 -1 
-0.57215 -0.57215 -0.587613 0.0262976 0.0262976 -0.999308 0.706984 0.0186049 -0.706984 
0 0 -1 -0.57215 -0.57215 -0.587613 0.57215 0.57215 -0.587613 
0.57215 0.57215 -0.587613 0.0186049 0.706984 -0.706984 -0.0262976 -0.0262976 -0.999308 
-0.0186049 -0.706984 -0.706984 -0.706984 -0.0186049 -0.706984 0 0 -1 
-0.57215 -0.57215 -0.587613 0.0262976 0.0262976 -0.999308 0.706984 0.0186049 -0.706984 
0 0 -1 -0.697617 0 -0.716471 0.57215 0.57215 -0.587613 
0.57215 0.57215 -0.587613 0.0186049 0.706984 -0.706984 -0.0263067 0 -0.999654 
-0.0188512 -0.697493 -0.716344 -0.999654 0 -0.0263067 0 -0.0263067 -0.999654 
0 -0.707107 -0.707107 0 -0.707107 -0.707107 0 -0.707107 -0.707107 
0.0186049 -0.706984 -0.706984 0.0186049 -0.706984 -0.706984 0.706984 -0.0186049 -0.706984 
0 0 -1 -0.697617 0 -0.716471 0.697617 0 -0.716471 
-0.707107 0 -0.707107 -0.707107 0 -0.707107 -0.582414 -0.567087 -0.582414 
0.587613 -0.57215 -0.57215 0 0.0263067 -0.999654 -0.697493 0.0188512 -0.716344 
0.697493 0.0188512 -0.716344 -0.57735 -0.57735 -0.57735 -0.706984 -0.0186049 -0.706984 
-0.999308 -0.0262976 -0.0262976 0.57215 -0.57215 -0.587613 0.697617 0 -0.716471 
0.0263067 0 -0.999654 0.0188512 -0.697493 -0.716344 0.707107 0 -0.707107 
0 0.707107 -0.707107 -1 0 0 0.582414 0.582414 -0.567087 
0.57215 0.57215 -0.587613 0.0188512 0.697493 -0.716344 -0.999654 0.0263067 0 
0.582414 0.582414 -0.567087 0.582414 0.582414 -0.567087 -0.0188512 0.716344 -0.697493 
0 0.716471 -0.697617 0.0263067 0.999654 0 -0.0262976 -0.0262976 -0.999308 
-0.0262976 -0.999308 -0.0262976 -0.706984 -0.706984 -0.0186049 0.0262976 -0.0262976 -0.999308 
0.0262976 -0.999308 -0.0262976 0.999308 -0.0262976 -0.0262976 -0.0262976 -0.0262976 -0.999308 
-0.706984 -0.706984 -0.0186049 -0.706984 -0.706984 -0.0186049 0 0 -1 
0.0263067 0 -0.999654 0.0188512 -0.697493 -0.716344 0 -0.707107 -0.707107 
0 -0.707107 -0.707107 0 -0.707107 -0.707107 0.567087 -0.582414 -0.582414 
-0.0262976 -0.0262976 -0.999308 -0.0262976 -0.999308 -0.0262976 -0.706984 -0.706984 -0.0186049 
0 -0.0263067 -0.999654 0 -0.999654 -0.0263067 0 -0.0263067 -0.999654 
-0.697493 -0.716344 -0.0188512 0 0 -1 0 0 -1 
0 -0.697617 -0.716471 0 -0.707107 -0.707107 -0.567087 -0.582414 -0.582414 
0.697493 -0.0188512 -0.716344 0.567087 -0.582414 -0.582414 0.0263067 0 -0.999654 
0.0270073 -0.99927 -0.0270073 0.999654 0 -0.0263067 -0.0262976 -0.0262976 -0.999308 
-0.706984 -0.706984 -0.0186049 -0.706984 -0.706984 -0.0186049 0 0 -1 
0 0 -1 0 0 -1 0 0 -1 
-0.697617 0 -0.716471 0.706984 0.0186049 -0.706984 0.57735 0.57735 -0.57735 
0.582414 0.567087 -0.582414 -0.0262976 -0.0262976 -0.999308 -0.706984 -0.706984 -0.0186049 
-0.706984 -0.706984 -0.0186049 0 0 -1 0 0 -1 
0 0 -1 0 0 -1 0 -0.697617 -0.716471 
-0.57215 -0.57215 -0.587613 0.57215 0.57215 -0.587613 0.0188512 0.697493 -0.716344 
0.716344 0.697493 -0.0188512 0.706984 0.706984 -0.0186049 -0.0262976 -0.0262976 -0.999308 
-0.706984 -0.706984 -0.0186049 -0.706984 -0.706984 -0.0186049 0 0 -1 
0 0 -1 0 0 -1 0 0 -1 
-0.697617 0 -0.716471 0.697617 0 -0.716471 0.0263067 0 -0.999654 
0.999654 0 -0.0263067 -0.0186049 -0.706984 -0.706984 -0.706984 -0.706984 -0.0186049 
-0.999308 -0.0262976 -0.0262976 0 -0.697617 -0.716471 0 -0.697617 -0.716471 
0 -0.697617 -0.716471 0 0 -1 0 0 -1 
-0.697617 0 -0.716471 0.57215 0.57215 -0.587613 0 0.697617 -0.716471 
0 0 -1 0.0262976 0.0262976 -0.999308 0.999308 0.0262976 -0.0262976 
-1 0 0 0.697617 0 -0.716471 0 0 -1 
-0.697617 0 -0.716471 0.697617 0 -0.716471 0 0 -1 
0.0262976 0.0262976 -0.999308 0.57735 0.57735 -0.57735 0.57735 0.57735 -0.57735 
-0.707107 0 -0.707107 -0.999654 0 -0.0263067 0.57215 -0.57215 -0.587613 
0 -0.697617 -0.716471 -0.697617 0 -0.716471 0.697617 0 -0.716471 
0.0262976 0.0262976 -0.999308 0.706984 0.706984 -0.0186049 0.706984 0.706984 -0.0186049 
-1 0 0 0.697493 0.0188512 -0.716344 0 0.707107 -0.707107 
0.0262976 0.0262976 -0.999308 0.57735 0.57735 -0.57735 0.57735 0.57735 -0.57735 
-1 0 0 0.57215 0.57215 -0.587613 0.0186049 0.706984 -0.706984 
0.706984 0.706984 -0.0186049 0.697493 0.716344 -0.0188512 0 0.999654 -0.0263067 
0.0262976 0.999308 -0.0262976 -0.716471 0 -0.697617 0.567087 0.582414 -0.582414 
0.0262976 0.0262976 -0.999308 0.706984 0.706984 -0.0186049 0.706984 0.706984 -0.0186049 
-0.0188512 0.697493 -0.716344 -0.707107 0 -0.707107 0.0186049 0.706984 -0.706984 
0.706984 0.706984 -0.0186049 0.697617 0.716471 0 0 0.999654 -0.0263067 
0.0262976 0.999308 -0.0262976 0 0.0263067 -0.999654 -0.697493 0.0188512 -0.716344 
0.697493 0.716344 -0.0188512 0.706984 0.706984 -0.0186049 0 0.999654 -0.0263067 
-0.0263067 -0.999654 0 -0.707107 -0.707107 0 0.0263067 -0.999654 0 
0.0188512 -0.716344 -0.697493 0 -0.707107 -0.707107 0 -0.999654 -0.0263067 
0 -0.707107 -0.707107 0.567087 -0.582414 -0.582414 -0.707107 -0.707107 0 
-0.707107 -0.707107 0 0 -0.707107 -0.707107 0 -0.707107 -0.707107 
0.57735 -0.57735 -0.57735 0.57735 -0.57735 -0.57735 0.57735 -0.57735 -0.57735 
-0.0263067 -0.999654 0 -0.707107 -0.707107 0 0 -1 0 
-0.697617 -0.716471 0 0.582414 -0.582414 -0.567087 0.716344 -0.0188512 -0.697493 
-0.707107 -0.707107 0 -0.707107 -0.707107 0 0.57735 0.57735 -0.57735 
0.706984 0.0186049 -0.706984 -0.707107 -0.707107 0 -0.707107 -0.707107 0 
0.587613 0.57215 -0.57215 0.57215 0.587613 -0.57215 0.0186049 0.706984 -0.706984 
-0.707107 -0.707107 0 -0.707107 -0.707107 0 0.716471 0 -0.697617 
-0.707107 -0.707107 0 -0.999654 -0.0263067 0 0.716471 0 -0.697617 
-1 0 0 0.57735 0.57735 -0.57735 0.706984 0.0186049 -0.706984 
-1 0 0 0.587613 0.57215 -0.57215 0.57215 0.587613 -0.57215 
0.0186049 0.706984 -0.706984 -1 0 0 0.57735 0.57735 -0.57735 
0.706984 0.0186049 -0.706984 -0.716471 -0.697617 0 0.582414 0.582414 -0.567087 
0.57215 0.587613 -0.57215 0 0.716471 -0.697617 0 0.716471 -0.697617 
0.0186049 0.706984 -0.706984 -0.706984 -0.0186049 -0.706984 -0.706984 -0.706984 -0.0186049 
-0.999308 -0.0262976 -0.0262976 0.582414 0.582414 -0.567087 0.582414 0.582414 -0.567087 
-0.707107 0 -0.707107 -0.707107 0 -0.707107 0.707107 0.707107 0 
0.697617 0.716471 0 0 1 0 0.0263067 0.999654 0 
-0.706984 0.0186049 -0.706984 -0.706984 0.0186049 -0.706984 0.707107 0.707107 0 
0.707107 0.707107 0 -0.0262976 0.999308 -0.0262976 0.0263067 0.999654 0 
-0.0188512 -0.716344 -0.697493 -0.582414 -0.582414 -0.567087 0 -0.716471 -0.697617 
0 -0.707107 -0.707107 0 -0.707107 -0.707107 0 -0.716471 -0.697617 
0.567087 -0.582414 -0.582414 0 -0.707107 -0.707107 0.0262976 -0.0262976 -0.999308 
0.0186049 -0.706984 -0.706984 0.999308 -0.0262976 -0.0262976 -0.582414 -0.582414 -0.567087 
-0.582414 -0.582414 -0.567087 0.582414 -0.567087 -0.582414 0.582414 -0.567087 -0.582414 
-0.0188512 -0.716344 -0.697493 -0.582414 -0.582414 -0.567087 0 -0.716471 -0.697617 
-0.57215 -0.587613 -0.57215 0.697493 -0.0188512 -0.716344 0.567087 -0.582414 -0.582414 
0.0263067 0 -0.999654 0.0270073 -0.99927 -0.0270073 0.999654 0 -0.0263067 
-0.582414 -0.582414 -0.567087 -0.582414 -0.582414 -0.567087 0.706984 0.0186049 -0.706984 
0.706984 0.706984 -0.0186049 0.716344 0.697493 -0.0188512 -0.582414 -0.582414 -0.567087 
-0.582414 -0.582414 -0.567087 0.57215 0.57215 -0.587613 0.0188512 0.697493 -0.716344 
0.716344 0.697493 -0.0188512 0.706984 0.706984 -0.0186049 -0.582414 -0.582414 -0.567087 
-0.582414 -0.582414 -0.567087 0.697617 0 -0.716471 0.0263067 0 -0.999654 
0.999654 0 -0.0263067 -0.582414 -0.582414 -0.567087 -0.716344 -0.0188512 -0.697493 
0.697617 0 -0.716471 0.0262976 0.0262976 -0.999308 0.999308 0.0262976 -0.0262976 
-0.716471 0 -0.697617 0.706984 0.0186049 -0.706984 0.706984 0.706984 -0.0186049 
0.706984 0.706984 -0.0186049 -0.716471 0 -0.697617 0.57215 0.57215 -0.587613 
0.0186049 0.706984 -0.706984 0.706984 0.706984 -0.0186049 0.706984 0.706984 -0.0186049 
-0.716471 0 -0.697617 0.706984 0.0186049 -0.706984 0.706984 0.706984 -0.0186049 
0.706984 0.706984 -0.0186049 -0.587613 -0.57215 -0.57215 0.57215 0.57215 -0.587613 
0 0.697617 -0.716471 0 0.697617 -0.716471 0.0186049 0.706984 -0.706984 
0.706984 0.706984 -0.0186049 0.706984 0.706984 -0.0186049 -0.582414 -0.582414 -0.567087 
-0.582414 -0.582414 -0.567087 0.567087 0.582414 -0.582414 0 0.0263067 -0.999654 
0 0.0263067 -0.999654 0.0262976 0.0262976 -0.999308 0.706984 0.706984 -0.0186049 
0.706984 0.706984 -0.0186049 -0.706984 -0.0186049 -0.706984 -0.57735 -0.57735 -0.57735 
-0.706984 -0.0186049 -0.706984 0.706984 0.706984 0.0186049 0.697617 0.716471 0 
0 1 0 0 1 0 0 0.999654 -0.0263067 
0 0.999654 -0.0263067 0 0.999654 -0.0263067 0.0262976 0.999308 -0.0262976 
-0.716344 0.0188512 -0.697493 -0.999654 0.0263067 0 0.706984 0.706984 0.0186049 
0.706984 0.706984 0.0186049 -0.0263067 0.999654 0 0 0.999654 0.0263067 
0.0262976 0.999308 0.0262976 0 0 -1 0 -0.697617 -0.716471 