# vtk DataFile Version 3.0
vtk output
ASCII
DATASET POLYDATA
POINTS 6174 float
106 24 76.0217 106 23.0217 77 105.022 24 77 
106.978 24 77 106 25 76.0217 105.022 25 77 
107 24.0217 77 107 25 76.0217 107.978 25 77 
106 25.9783 77 107 25.9783 77 104 23 77.0217 
104 22.0217 78 103.022 23 78 104.978 23 78 
101 24 77.0217 101 23.0217 78 100.022 24 78 
102 24 77.0217 102 23.0217 78 103 24 77.0217 
103 23.0217 78 104 24 77.0217 105 23.0217 78 
105 24 77.0217 106 23.0217 78 107 24 77.0217 
107 23.0217 78 108 24 77.0217 108 23.0217 78 
108.978 24 78 101 25 77.0217 100.022 25 78 
102 25 77.0217 103 25 77.0217 104 25 77.0217 
105 25 77.0217 108 25 77.0217 108.978 25 78 
101 26 77.0217 100.022 26 78 102 26 77.0217 
103 26 77.0217 104 26 77.0217 105 26 77.0217 
106 26 77.0217 107 26 77.0217 108 26 77.0217 
108.978 26 78 101 27 77.0217 100.022 27 78 
102 27 77.0217 103 27 77.0217 104 27 77.0217 
105 27 77.0217 106 27 77.0217 107 27 77.0217 
107.978 27 78 108 26.9783 78 101 28 77.0217 
100.022 28 78 102 28 77.0217 103 28 77.0217 
104 28 77.0217 105 28 77.0217 106 28 77.0217 
106.978 28 78 107 27.9783 78 101 29 77.0217 
100.022 29 78 102 29 77.0217 103 29 77.0217 
104 29 77.0217 105 29 77.0217 106 29 77.0217 
106.978 29 78 101 29.9783 78 102 29.9783 78 
102.022 30 78 103 30 77.0217 104 30 77.0217 
105 30 77.0217 106 30 77.0217 106.978 30 78 
103 31 77.0217 102.022 31 78 104 31 77.0217 
105 31 77.0217 106 31 77.0217 106.978 31 78 
103 31.9783 78 104 31.9783 78 104.022 32 78 
105 32 77.0217 106 32 77.0217 106.978 32 78 
105 33 77.0217 104.022 33 78 105.978 33 78 
106 32.9783 78 105 33.9783 78 104 22.0217 79 
103.022 23 79 105 23 78.0217 105 22.0217 79 
106 23 78.0217 106 22.0217 79 107 23 78.0217 
107 22.0217 79 107.978 23 79 101 23.0217 79 
100.022 24 79 102 23.0217 79 103 23.0217 79 
108 23.0217 79 108.978 24 79 100.022 25 79 
108.978 25 79 100.022 26 79 108.978 26 79 
100 27 78.0217 100 26.0217 79 99.0217 27 79 
108 27 78.0217 108.978 27 79 100 28 78.0217 
99.0217 28 79 106.978 28 79 107 27.9783 79 
108 27.9783 79 100 29 78.0217 99.0217 29 79 
106.978 29 79 100 29.9783 79 101 29.9783 79 
102 30 78.0217 101.022 30 79 106.978 30 79 
102 31 78.0217 101.022 31 79 106.978 31 79 
102 31.9783 79 103 31.9783 79 104 32 78.0217 
103.022 32 79 106.978 32 79 104 33 78.0217 
103.022 33 79 106 33 78.0217 106.978 33 79 
104 33.9783 79 105 33.9783 79 106 34 78.0217 
105.022 34 79 106.978 34 79 106 35 78.0217 
105.022 35 79 107 34.0217 79 107 35 78.0217 
108 35 78.0217 108 34.0217 79 108.978 35 79 
106 35.9783 79 107 35.9783 79 107.022 36 79 
108 36 78.0217 108.978 36 79 108 37 78.0217 
107.022 37 79 108.978 37 79 108 38 78.0217 
107.022 38 79 108.978 38 79 108 38.9783 79 
109 38.0217 79 108.022 39 79 109 39 78.0217 
109.978 39 79 109 39.9783 79 110 39.0217 79 
109.022 40 79 110 40 78.0217 110.978 40 79 
110 41 78.0217 109.022 41 79 110.978 41 79 
110 42 78.0217 109.022 42 79 110.978 42 79 
110 42.9783 79 104 23 79.9783 105 23 79.9783 
106 23 79.9783 107 23 79.9783 101 23.0217 80 
100.022 24 80 102 23.0217 80 103 23.0217 80 
104 23.0217 80 105 23.0217 80 106 23.0217 80 
107 23.0217 80 108 23.0217 80 109 24 79.0217 
109 23.0217 80 110 24 79.0217 110 23.0217 80 
110.978 24 80 100.022 25 80 109 25 79.0217 
110 25 79.0217 110.978 25 80 100.022 26 80 
109 26 79.0217 110 26 79.0217 110.978 26 80 
100 26.0217 80 99.0217 27 80 109 27 79.0217 
110 27 79.0217 110.978 27 80 99 28 79.0217 
99 27.0217 80 98.0217 28 80 107 28 79.0217 
108 28 79.0217 109 28 79.0217 110 28 79.0217 
110.978 28 80 99 29 79.0217 98.0217 29 80 
107 29 79.0217 108 29 79.0217 109 29 79.0217 
110 29 79.0217 110.978 29 80 99 29.9783 80 
100 29.9783 80 101 30 79.0217 100.022 30 80 
107 30 79.0217 108 30 79.0217 109 30 79.0217 
110 30 79.0217 110.978 30 80 101 31 79.0217 
100.022 31 80 107 31 79.0217 108 31 79.0217 
109 31 79.0217 110 31 79.0217 110.978 31 80 
101 32 79.0217 100.022 32 80 102 32 79.0217 
103 32 79.0217 107 32 79.0217 108 32 79.0217 
109 32 79.0217 110 32 79.0217 110.978 32 80 
101 33 79.0217 100.022 33 80 102 33 79.0217 
103 33 79.0217 107 33 79.0217 108 33 79.0217 
109 33 79.0217 110 33 79.0217 110.978 33 80 
101 33.9783 80 102 33.9783 80 102.022 34 80 
103 34 79.0217 104 34 79.0217 105 34 79.0217 
107 34 79.0217 108 34 79.0217 109 34 79.0217 
110 34 79.0217 110.978 34 80 103 35 79.0217 
102.022 35 80 104 35 79.0217 105 35 79.0217 
109 35 79.0217 110 35 79.0217 110.978 35 80 
103 35.9783 80 104 35.9783 80 104.022 36 80 
105 36 79.0217 106 36 79.0217 107 36 79.0217 
109 36 79.0217 110 36 79.0217 110.978 36 80 
105 37 79.0217 104.022 37 80 106 37 79.0217 
107 37 79.0217 109 37 79.0217 110 37 79.0217 
110.978 37 80 105 37.9783 80 106 37.9783 80 
106.022 38 80 107 38 79.0217 109 38 79.0217 
110 38 79.0217 110.978 38 80 107 39 79.0217 
106.022 39 80 108 39 79.0217 110 39 79.0217 
110.978 39 80 107 39.9783 80 108 39.9783 80 
109 40 79.0217 108.022 40 80 111 40 79.0217 
111 39.0217 80 112 40 79.0217 112 39.0217 80 
112.978 40 80 109 41 79.0217 108.022 41 80 
111 41 79.0217 112 41 79.0217 112.978 41 80 
109 42 79.0217 108.022 42 80 111 42 79.0217 
112 42 79.0217 112.978 42 80 109 43 79.0217 
108.022 43 80 110 43 79.0217 111 43 79.0217 
111.978 43 80 112 42.9783 80 109 43.9783 80 
110 43.9783 80 111 43.9783 80 101 23.0217 81 
100.022 24 81 102 23.0217 81 103 23.0217 81 
104 23.0217 81 105 23.0217 81 106 23.0217 81 
107 23.0217 81 108 23.0217 81 109 23.0217 81 
110 23.0217 81 110.978 24 81 100.022 25 81 
110.978 25 81 100.022 26 81 110.978 26 81 
100 26.0217 81 99.0217 27 81 110.978 27 81 
99 27.0217 81 98.0217 28 81 110.978 28 81 
98.0217 29 81 110.978 29 81 99 29.9783 81 
100 29.9783 81 100.022 30 81 110.978 30 81 
100.022 31 81 110.978 31 81 100.022 32 81 
110.978 32 81 101 32.9783 81 101 33 80.9783 
101.022 33 81 110.978 33 81 102 33.9783 81 
102.022 34 81 110.978 34 81 103 34.9783 81 
103 35 80.9783 103.022 35 81 110.978 35 81 
104 35.9783 81 104.022 36 81 110.978 36 81 
105 36.9783 81 105 37 80.9783 105.022 37 81 
110.978 37 81 106 37.9783 81 106.022 38 81 
110.978 38 81 107 38.9783 81 107 39 80.9783 
107.022 39 81 110.978 39 81 108 39.9783 81 
108.022 40 81 111 39.0217 81 112 39.0217 81 
112.978 40 81 108.022 41 81 112.978 41 81 
108.022 42 81 112.978 42 81 109 42.9783 81 
109 43 80.9783 109.022 43 81 111.978 43 81 
112 42.9783 81 110 43.9783 81 111 43.9783 81 
101 23.0217 82 100.022 24 82 102 23.0217 82 
103 23.0217 82 104 23.0217 82 105 23.0217 82 
106 23.0217 82 107 23.0217 82 108 23.0217 82 
109 23.0217 82 110 23.0217 82 110.978 24 82 
100.022 25 82 110.978 25 82 100.022 26 82 
110.978 26 82 100 26.0217 82 99.0217 27 82 
110.978 27 82 99 27.0217 82 98.0217 28 82 
110.978 28 82 98.0217 29 82 110.978 29 82 
99 29.9783 82 100 29.9783 82 100.022 30 82 
111 29.0217 82 111 30 81.0217 112 30 81.0217 
112 29.0217 82 112.978 30 82 100.022 31 82 
111 31 81.0217 112 31 81.0217 112.978 31 82 
101 31.9783 82 101 32 81.9783 102 31.9783 82 
102 32 81.9783 102.022 32 82 111 32 81.0217 
112 32 81.0217 112.978 32 82 102 33 81.9783 
102.022 33 82 111 33 81.0217 112 33 81.0217 
112.978 33 82 103 33.9783 82 103 34 81.9783 
104 33.9783 82 104 34 81.9783 104.022 34 82 
111 34 81.0217 112 34 81.0217 112.978 34 82 
104 35 81.9783 104.022 35 82 111 35 81.0217 
112 35 81.0217 112.978 35 82 105 35.9783 82 
105 36 81.9783 106 35.9783 82 106 36 81.9783 
106.022 36 82 111 36 81.0217 112 36 81.0217 
112.978 36 82 106 37 81.9783 106.022 37 82 
111 37 81.0217 111.978 37 82 112 36.9783 82 
107 37.9783 82 107 38 81.9783 108 37.9783 82 
108 38 81.9783 108.022 38 82 110.978 38 82 
111 37.9783 82 108 39 81.9783 108.022 39 82 
110.978 39 82 109 39.9783 82 109 40 81.9783 
110 39.9783 82 110 40 81.9783 111 39.0217 82 
110.022 40 82 112 39.0217 82 112.978 40 82 
109 41 81.9783 110 41 81.9783 110.022 41 82 
112.978 41 82 109 42 81.9783 110 42 81.9783 
110.022 42 82 112.978 42 82 110 43 81.9783 
110.022 43 82 111.978 43 82 112 42.9783 82 
111 43.9783 82 101 23.0217 83 100.022 24 83 
102 23.0217 83 103 23.0217 83 104 23.0217 83 
105 23.0217 83 106 23.0217 83 107 23.0217 83 
108 23.0217 83 109 23.0217 83 110 24 82.9783 
109.978 24 83 100.022 25 83 110 25 82.9783 
109.978 25 83 100.022 26 83 110 25.0217 83 
110.978 26 83 100 26.0217 83 99.0217 27 83 
110.978 27 83 99 27.0217 83 98.0217 28 83 
110.978 28 83 98.0217 29 83 110.978 29 83 
99 29.9783 83 100 29.9783 83 100.022 30 83 
111 29.0217 83 112 29.0217 83 112.978 30 83 
100.022 31 83 112.978 31 83 101 31.9783 83 
102 31.9783 83 102.022 32 83 112.978 32 83 
102.022 33 83 112.978 33 83 103 33.9783 83 
104 33.9783 83 104.022 34 83 112.978 34 83 
104.022 35 83 112.978 35 83 105 35.9783 83 
106 35.9783 83 106.022 36 83 112.978 36 83 
106.022 37 83 111.978 37 83 112 36.9783 83 
107 37.9783 83 108 37.9783 83 108.022 38 83 
110.978 38 83 111 37.9783 83 108.022 39 83 
110.978 39 83 109 39.9783 83 110 39.9783 83 
111 39.0217 83 110.022 40 83 112 39.0217 83 
112.978 40 83 110.022 41 83 112.978 41 83 
110.022 42 83 112.978 42 83 111 42.9783 83 
111 43 82.9783 112 42.9783 83 101 24 83.9783 
102 24 83.9783 103 24 83.9783 104 24 83.9783 
105 24 83.9783 106 24 83.9783 107 24 83.9783 
108 24 83.9783 109 24 83.9783 101 25 83.9783 
102 25 83.9783 103 25 83.9783 104 25 83.9783 
105 25 83.9783 106 25 83.9783 107 25 83.9783 
108 25 83.9783 109 25 83.9783 101 25.0217 84 
100.022 26 84 102 25.0217 84 103 25.0217 84 
104 25.0217 84 105 25.0217 84 106 25.0217 84 
107 25.0217 84 108 25.0217 84 109 25.0217 84 
110 25.0217 84 110.978 26 84 100 26.0217 84 
99.0217 27 84 110.978 27 84 99 27.0217 84 
98.0217 28 84 110.978 28 84 98 29 83.0217 
98 28.0217 84 97.0217 29 84 110.978 29 84 
97 30 83.0217 97 29.0217 84 96.0217 30 84 
98 30 83.0217 99 29.9783 84 98.9783 30 84 
100 29.9783 84 100.022 30 84 111 29.0217 84 
112 29.0217 84 112.978 30 84 96 31 83.0217 
96 30.0217 84 95.0217 31 84 97 31 83.0217 
97.9783 31 84 98 30.9783 84 100.022 31 84 
112.978 31 84 95 32 83.0217 95 31.0217 84 
94.0217 32 84 96 32 83.0217 96.9783 32 84 
97 31.9783 84 101 31.9783 84 102 31.9783 84 
[...]
POINT_DATA 6174
SCALARS scalars float
LOOKUP_TABLE default
1 1 1 1 1 1 1 1 1 
1 1 1 1 1 1 1 1 1 
1 1 1 1 1 1 1 1 1 
1 1 1 1 1 1 1 1 1 
1 1 1 1 1 1 1 1 1 
1 1 1 1 1 1 1 1 1 
1 1 1 1 1 1 1 1 1 
1 1 1 1 1 1 1 1 1 
1 1 1 1 1 1 1 1 1 
1 1 1 1 1 1 1 1 1 
1 1 1 1 1 1 1 1 1 
1 1 1 1 1 1 1 1 1 
1 1 1 1 1 1 1 1 1 
1 1 1 1 1 1 1 1 1 
1 1 1 1 1 1 1 1 1 
1 1 1 1 1 1 1 1 1 
1 1 1 1 1 1 1 1 1 
1 1 1 1 1 1 1 1 1 
1 1 1 1 1 1 1 1 1 
1 1 1 1 1 1 1 1 1 
1 1 1 1 1 1 1 1 1 
1 1 1 1 1 1 1 1 1 
1 1 1 1 1 1 1 1 1 
1 1 1 1 1 1 1 1 1 
1 1 1 1 1 1 1 1 1 
1 1 1 1 1 1 1 1 1 
1 1 1 1 1 1 1 1 1 
1 1 1 1 1 1 1 1 1 
1 1 1 1 1 1 1 1 1 
1 1 1 1 1 1 1 1 1 
1 1 1 1 1 1 1 1 1 
1 1 1 1 1 1 1 1 1 
1 1 1 1 1 1 1 1 1 
1 1 1 1 1 1 1 1 1 
1 1 1 1 1 1 1 1 1 
1 1 1 1 1 1 1 1 1 
1 1 1 1 1 1 1 1 1 
1 1 1 1 1 1 1 1 1 
1 1 1 1 1 1 1 1 1 
1 1 1 1 1 1 1 1 1 
1 1 1 1 1 1 1 1 1 
1 1 1 1 1 1 1 1 1 
1 1 1 1 1 1 1 1 1 
1 1 1 1 1 1 1 1 1 
1 1 1 1 1 1 1 1 1 
1 1 1 1 1 1 1 1 1 
1 1 1 1 1 1 1 1 1 
1 1 1 1 1 1 1 1 1 
1 1 1 1 1 1 1 1 1 
1 1 1 1 1 1 1 1 1 
1 1 1 1 1 1 1 1 1 
1 1 1 1 1 1 1 1 1 
1 1 1 1 1 1 1 1 1 
1 1 1 1 1 1 1 1 1 
1 1 1 1 1 1 1 1 1 
1 1 1 1 1 1 1 1 1 
1 1 1 1 1 1 1 1 1 
1 1 1 1 1 1 1 1 1 
1 1 1 1 1 1 1 1 1 
1 1 1 1 1 1 1 1 1 
1 1 1 1 1 1 1 1 1 
1 1 1 1 1 1 1 1 1 
1 1 1 1 1 1 1 1 1 
1 1 1 1 1 1 1 1 1 
1 1 1 1 1 1 1 1 1 
1 1 1 1 1 1 1 1 1 
1 1 1 1 1 1 1 1 1 
1 1 1 1 1 1 1 1 1 
1 1 1 1 1 1 1 1 1 
1 1 1 1 1 1 1 1 1 
1 1 1 1 1 1 1 1 1 
1 1 1 1 1 1 1 1 1 
1 1 1 1 1 1 1 1 1 
1 1 1 1 1 1 1 1 1 
1 1 1 1 1 1 1 1 1 
1 1 1 1 1 1 1 1 1 
1 1 1 1 1 1 1 1 1 
1 1 1 1 1 1 1 1 1 
1 1 1 1 1 1 1 1 1 
1 1 1 1 1 1 1 1 1 
1 1 1 1 1 1 1 1 1 
1 1 1 1 1 1 1 1 1 
1 1 1 1 1 1 1 1 1 
1 1 1 1 1 1 1 1 1 
1 1 1 1 1 1 1 1 1 
1 1 1 1 1 1 1 1 1 
1 1 1 1 1 1 1 1 1 
1 1 1 1 1 1 1 1 1 
1 1 1 1 1 1 1 1 1 
1 1 1 1 1 1 1 1 1 
1 1 1 1 1 1 1 1 1 
1 1 1 1 1 1 1 1 1 
1 1 1 1 1 1 1 1 1 
1 1 1 1 1 1 1 1 1 
1 1 1 1 1 1 1 1 1 
1 1 1 1 1 1 1 1 1 
1 1 1 1 1 1 1 1 1 
1 1 1 1 1 1 1 1 1 
1 1 1 1 1 1 1 1 1 
1 1 1 1 1 1 1 1 1 
1 1 1 1 1 1 1 1 1 
1 1 1 1 1 1 1 1 1 
1 1 1 1 1 1 1 1 1 
1 1 1 1 1 1 1 1 1 
1 1 1 1 1 1 1 1 1 
1 1 1 1 1 1 1 1 1 
1 1 1 1 1 1 1 1 1 
1 1 1 1 1 1 1 1 1 
1 1 1 1 1 1 1 1 1 
1 1 1 1 1 1 1 1 1 
1 1 1 1 1 1 1 1 1 
1 1 1 1 1 1 1 1 1 
1 1 1 1 1 1 1 1 1 
1 1 1 1 1 1 1 1 1 
1 1 1 1 1 1 1 1 1 
1 1 1 1 1 1 1 1 1 
1 1 1 1 1 1 1 1 1 
1 1 1 1 1 1 1 1 1 
1 1 1 1 1 1 1 1 1 
1 1 1 1 1 1 1 1 1 
1 1 1 1 1 1 1 1 1 
1 1 1 1 1 1 1 1 1 
1 1 1 1 1 1 1 1 1 
1 1 1 1 1 1 1 1 1 
1 1 1 1 1 1 1 1 1 
1 1 1 1 1 1 1 1 1 
1 1 1 1 1 1 1 1 1 
1 1 1 1 1 1 1 1 1 
1 1 1 1 1 1 1 1 1 
1 1 1 1 1 1 1 1 1 
1 1 1 1 1 1 1 1 1 
1 1 1 1 1 1 1 1 1 
1 1 1 1 1 1 1 1 1 
1 1 1 1 1 1 1 1 1 
1 1 1 1 1 1 1 1 1 
1 1 1 1 1 1 1 1 1 
1 1 1 1 1 1 1 1 1 
1 1 1 1 1 1 1 1 1 
1 1 1 1 1 1 1 1 1 
1 1 1 1 1 1 1 1 1 
1 1 1 1 1 1 1 1 1 
1 1 1 1 1 1 1 1 1 
1 1 1 1 1 1 1 1 1 
1 1 1 1 1 1 1 1 1 
1 1 1 1 1 1 1 1 1 
1 1 1 1 1 1 1 1 1 
1 1 1 1 1 1 1 1 1 
1 1 1 1 1 1 1 1 1 
1 1 1 1 1 1 1 1 1 
1 1 1 1 1 1 1 1 1 
1 1 1 1 1 1 1 1 1 
1 1 1 1 1 1 1 1 1 
1 1 1 1 1 1 1 1 1 
1 1 1 1 1 1 1 1 1 
1 1 1 1 1 1 1 1 1 
1 1 1 1 1 1 1 1 1 
1 1 1 1 1 1 1 1 1 
1 1 1 1 1 1 1 1 1 
1 1 1 1 1 1 1 1 1 
1 1 1 1 1 1 1 1 1 
1 1 1 1 1 1 1 1 1 
1 1 1 1 1 1 1 1 1 
1 1 1 1 1 1 1 1 1 
1 1 1 1 1 1 1 1 1 
1 1 1 1 1 1 1 1 1 
1 1 1 1 1 1 1 1 1 
1 1 1 1 1 1 1 1 1 
1 1 1 1 1 1 1 1 1 
1 1 1 1 1 1 1 1 1 
1 1 1 1 1 1 1 1 1 
1 1 1 1 1 1 1 1 1 
1 1 1 1 1 1 1 1 1 
1 1 1 1 1 1 1 1 1 
1 1 1 1 1 1 1 1 1 
1 1 1 1 1 1 1 1 1 
1 1 1 1 1 1 1 1 1 
1 1 1 1 1 1 1 1 1 
1 1 1 1 1 1 1 1 1 
1 1 1 1 1 1 1 1 1 
1 1 1 1 1 1 1 1 1 
1 1 1 1 1 1 1 1 1 
1 1 1 1 1 1 1 1 1 
1 1 1 1 1 1 1 1 1 
1 1 1 1 1 1 1 1 1 
1 1 1 1 1 1 1 1 1 
1 1 1 1 1 1 1 1 1 
1 1 1 1 1 1 1 1 1 
1 1 1 1 1 1 1 1 1 
1 1 1 1 1 1 1 1 1 
1 1 1 1 1 1 1 1 1 
1 1 1 1 1 1 1 1 1 
1 1 1 1 1 1 1 1 1 
1 1 1 1 1 1 1 1 1 
1 1 1 1 1 1 1 1 1 
1 1 1 1 1 1 1 1 1 
1 1 1 1 1 1 1 1 1 
1 1 1 1 1 1 1 1 1 
1 1 1 1 1 1 1 1 1 
1 1 1 1 1 1 1 1 1 
1 1 1 1 1 1 1 1 1 
1 1 1 1 1 1 1 1 1 
1 1 1 1 1 1 1 1 1 
1 1 1 1 1 1 1 1 1 
1 1 1 1 1 1 1 1 1 
1 1 1 1 1 1 1 1 1 
1 1 1 1 1 1 1 1 1 
1 1 1 1 1 1 1 1 1 
1 1 1 1 1 1 1 1 1 
1 1 1 1 1 1 1 1 1 
1 1 1 1 1 1 1 1 1 
1 1 1 1 1 1 1 1 1 
1 1 1 1 1 1 1 1 1 
1 1 1 1 1 1 1 1 1 
1 1 1 1 1 1 1 1 1 
1 1 1 1 1 1 1 1 1 
1 1 1 1 1 1 1 1 1 
1 1 1 1 1 1 1 1 1 
1 1 1 1 1 1 1 1 1 
1 1 1 1 1 1 1 1 1 
1 1 1 1 1 1 1 1 1 
1 1 1 1 1 1 1 1 1 
1 1 1 1 1 1 1 1 1 
1 1 1 1 1 1 1 1 1 
1 1 1 1 1 1 1 1 1 
1 1 1 1 1 1 1 1 1 
1 1 1 1 1 1 1 1 1 
1 1 1 1 1 1 1 1 1 
1 1 1 1 1 1 1 1 1 
1 1 1 1 1 1 1 1 1 
1 1 1 1 1 1 1 1 1 
1 1 1 1 1 1 1 1 1 
1 1 1 1 1 1 1 1 1 
1 1 1 1 1 1 1 1 1 
1 1 1 1 1 1 1 1 1 
1 1 1 1 1 1 1 1 1 
1 1 1 1 1 1 1 1 1 
1 1 1 1 1 1 1 1 1 
1 1 1 1 1 1 1 1 1 
1 1 1 1 1 1 1 1 1 
1 1 1 1 1 1 1 1 1 
1 1 1 1 1 1 1 1 1 
1 1 1 1 1 1 1 1 1 
1 1 1 1 1 1 1 1 1 
1 1 1 1 1 1 1 1 1 
1 1 1 1 1 1 1 1 1 
1 1 1 1 1 1 1 1 1 
1 1 1 1 1 1 1 1 1 
1 1 1 1 1 1 1 1 1 
1 1 1 1 1 1 1 1 1 
1 1 1 1 1 1 1 1 1 
1 1 1 1 1 1 1 1 1 
1 1 1 1 1 1 1 1 1 
1 1 1 1 1 1 1 1 1 
1 1 1 1 1 1 1 1 1 
1 1 1 1 1 1 1 1 1 
1 1 1 1 1 1 1 1 1 
1 1 1 1 1 1 1 1 1 
1 1 1 1 1 1 1 1 1 
1 1 1 1 1 1 1 1 1 
1 1 1 1 1 1 1 1 1 
1 1 1 1 1 1 1 1 1 
1 1 1 1 1 1 1 1 1 
1 1 1 1 1 1 1 1 1 
1 1 1 1 1 1 1 1 1 
1 1 1 1 1 1 1 1 1 
1 1 1 1 1 1 1 1 1 
1 1 1 1 1 1 1 1 1 
1 1 1 1 1 1 1 1 1 
1 1 1 1 1 1 1 1 1 
1 1 1 1 1 1 1 1 1 
1 1 1 1 1 1 1 1 1 
1 1 1 1 1 1 1 1 1 
1 1 1 1 1 1 1 1 1 
1 1 1 1 1 1 1 1 1 
1 1 1 1 1 1 1 1 1 
1 1 1 1 1 1 1 1 1 
1 1 1 1 1 1 1 1 1 
1 1 1 1 1 1 1 1 1 
1 1 1 1 1 1 1 1 1 
1 1 1 1 1 1 1 1 1 
1 1 1 1 1 1 1 1 1 
1 1 1 1 1 1 1 1 1 
1 1 1 1 1 1 1 1 1 
1 1 1 1 1 1 1 1 1 
1 1 1 1 1 1 1 1 1 
1 1 1 1 1 1 1 1 1 
1 1 1 1 1 1 1 1 1 
1 1 1 1 1 1 1 1 1 
1 1 1 1 1 1 1 1 1 
1 1 1 1 1 1 1 1 1 
1 1 1 1 1 1 1 1 1 
1 1 1 1 1 1 1 1 1 
1 1 1 1 1 1 1 1 1 
1 1 1 1 1 1 1 1 1 
1 1 1 1 1 1 1 1 1 
1 1 1 1 1 1 1 1 1 
1 1 1 1 1 1 1 1 1 
1 1 1 1 1 1 1 1 1 
1 1 1 1 1 1 1 1 1 
1 1 1 1 1 1 1 1 1 
1 1 1 1 1 1 1 1 1 
1 1 1 1 1 1 1 1 1 
1 1 1 1 1 1 1 1 1 
1 1 1 1 1 1 1 1 1 
1 1 1 1 1 1 1 1 1 
1 1 1 1 1 1 1 1 1 
1 1 1 1 1 1 1 1 1 
1 1 1 1 1 1 1 1 1 
1 1 1 1 1 1 1 1 1 
1 1 1 1 1 1 1 1 1 
1 1 1 1 1 1 1 1 1 
1 1 1 1 1 1 1 1 1 
1 1 1 1 1 1 1 1 1 
1 1 1 1 1 1 1 1 1 
1 1 1 1 1 1 1 1 1 
1 1 1 1 1 1 1 1 1 
1 1 1 1 1 1 1 1 1 
1 1 1 1 1 1 1 1 1 
1 1 1 1 1 1 1 1 1 
1 1 1 1 1 1 1 1 1 
1 1 1 1 1 1 1 1 1 
1 1 1 1 1 1 1 1 1 
1 1 1 1 1 1 1 1 1 
1 1 1 1 1 1 1 1 1 
1 1 1 1 1 1 1 1 1 
1 1 1 1 1 1 1 1 1 
1 1 1 1 1 1 1 1 1 
1 1 1 1 1 1 1 1 1 
1 1 1 1 1 1 1 1 1 
1 1 1 1 1 1 1 1 1 
1 1 1 1 1 1 1 1 1 
1 1 1 1 1 1 1 1 1 
1 1 1 1 1 1 1 1 1 
1 1 1 1 1 1 1 1 1 
1 1 1 1 1 1 1 1 1 
1 1 1 1 1 1 1 1 1 
1 1 1 1 1 1 1 1 1 
1 1 1 1 1 1 1 1 1 
1 1 1 1 1 1 1 1 1 
1 1 1 1 1 1 1 1 1 
1 1 1 1 1 1 1 1 1 
1 1 1 1 1 1 1 1 1 
1 1 1 1 1 1 1 1 1 
1 1 1 1 1 1 1 1 1 
1 1 1 1 1 1 1 1 1 
1 1 1 1 1 1 1 1 1 
1 1 1 1 1 1 1 1 1 
1 1 1 1 1 1 1 1 1 
1 1 1 1 1 1 1 1 1 
1 1 1 1 1 1 1 1 1 
1 1 1 1 1 1 1 1 1 
1 1 1 1 1 1 1 1 1 
1 1 1 1 1 1 1 1 1 
1 1 1 1 1 1 1 1 1 
1 1 1 1 1 1 1 1 1 
1 1 1 1 1 1 1 1 1 
1 1 1 1 1 1 1 1 1 
1 1 1 1 1 1 1 1 1 
1 1 1 1 1 1 1 1 1 
1 1 1 1 1 1 1 1 1 
1 1 1 1 1 1 1 1 1 
1 1 1 1 1 1 1 1 1 
1 1 1 1 1 1 1 1 1 
1 1 1 1 1 1 1 1 1 
1 1 1 1 1 1 1 1 1 
1 1 1 1 1 1 1 1 1 
1 1 1 1 1 1 1 1 1 
1 1 1 1 1 1 1 1 1 
1 1 1 1 1 1 1 1 1 
1 1 1 1 1 1 1 1 1 
1 1 1 1 1 1 1 1 1 
1 1 1 1 1 1 1 1 1 
1 1 1 1 1 1 1 1 1 
1 1 1 1 1 1 1 1 1 
1 1 1 1 1 1 1 1 1 
1 1 1 1 1 1 1 1 1 
1 1 1 1 1 1 1 1 1 
1 1 1 1 1 1 1 1 1 
1 1 1 1 1 1 1 1 1 
1 1 1 1 1 1 1 1 1 
1 1 1 1 1 1 1 1 1 
1 1 1 1 1 1 1 1 1 
1 1 1 1 1 1 1 1 1 
1 1 1 1 1 1 1 1 1 
1 1 1 1 1 1 1 1 1 
1 1 1 1 1 1 1 1 1 
1 1 1 1 1 1 1 1 1 
1 1 1 1 1 1 1 1 1 
1 1 1 1 1 1 1 1 1 
1 1 1 1 1 1 1 1 1 
1 1 1 1 1 1 1 1 1 
1 1 1 1 1 1 1 1 1 
1 1 1 1 1 1 1 1 1 
1 1 1 1 1 1 1 1 1 
1 1 1 1 1 1 1 1 1 
1 1 1 1 1 1 1 1 1 
1 1 1 1 1 1 1 1 1 
1 1 1 1 1 1 1 1 1 
1 1 1 1 1 1 1 1 1 
1 1 1 1 1 1 1 1 1 
1 1 1 1 1 1 1 1 1 
1 1 1 1 1 1 1 1 1 
1 1 1 1 1 1 1 1 1 
1 1 1 1 1 1 1 1 1 
1 1 1 1 1 1 1 1 1 
1 1 1 1 1 1 1 1 1 
1 1 1 1 1 1 1 1 1 
1 1 1 1 1 1 1 1 1 
1 1 1 1 1 1 1 1 1 
1 1 1 1 1 1 1 1 1 
1 1 1 1 1 1 1 1 1 
1 1 1 1 1 1 1 1 1 
1 1 1 1 1 1 1 1 1 
1 1 1 1 1 1 1 1 1 
1 1 1 1 1 1 1 1 1 
1 1 1 1 1 1 1 1 1 
1 1 1 1 1 1 1 1 1 
1 1 1 1 1 1 1 1 1 
1 1 1 1 1 1 1 1 1 
1 1 1 1 1 1 1 1 1 
1 1 1 1 1 1 1 1 1 
1 1 1 1 1 1 1 1 1 
1 1 1 1 1 1 1 1 1 
1 1 1 1 1 1 1 1 1 
1 1 1 1 1 1 1 1 1 
1 1 1 1 1 1 1 1 1 
1 1 1 1 1 1 1 1 1 
1 1 1 1 1 1 1 1 1 
1 1 1 1 1 1 1 1 1 
1 1 1 1 1 1 1 1 1 
1 1 1 1 1 1 1 1 1 
1 1 1 1 1 1 1 1 1 
1 1 1 1 1 1 1 1 1 
1 1 1 1 1 1 1 1 1 
1 1 1 1 1 1 1 1 1 
1 1 1 1 1 1 1 1 1 
1 1 1 1 1 1 1 1 1 
1 1 1 1 1 1 1 1 1 
1 1 1 1 1 1 1 1 1 
1 1 1 1 1 1 1 1 1 
1 1 1 1 1 1 1 1 1 
1 1 1 1 1 1 1 1 1 
1 1 1 1 1 1 1 1 1 
1 1 1 1 1 1 1 1 1 
1 1 1 1 1 1 1 1 1 
1 1 1 1 1 1 1 1 1 
1 1 1 1 1 1 1 1 1 
1 1 1 1 1 1 1 1 1 
1 1 1 1 1 1 1 1 1 
1 1 1 1 1 1 1 1 1 
1 1 1 1 1 1 1 1 1 
1 1 1 1 1 1 1 1 1 
1 1 1 1 1 1 1 1 1 
1 1 1 1 1 1 1 1 1 
1 1 1 1 1 1 1 1 1 
1 1 1 1 1 1 1 1 1 
1 1 1 1 1 1 1 1 1 
1 1 1 1 1 1 1 1 1 
1 1 1 1 1 1 1 1 1 
1 1 1 1 1 1 1 1 1 
1 1 1 1 1 1 1 1 1 
1 1 1 1 1 1 1 1 1 
1 1 1 1 1 1 1 1 1 
1 1 1 1 1 1 1 1 1 
1 1 1 1 1 1 1 1 1 
1 1 1 1 1 1 1 1 1 
1 1 1 1 1 1 1 1 1 
1 1 1 1 1 1 1 1 1 
1 1 1 1 1 1 1 1 1 
1 1 1 1 1 1 1 1 1 
1 1 1 1 1 1 1 1 1 
1 1 1 1 1 1 1 1 1 
1 1 1 1 1 1 1 1 1 
1 1 1 1 1 1 1 1 1 
1 1 1 1 1 1 1 1 1 
1 1 1 1 1 1 1 1 1 
1 1 1 1 1 1 1 1 1 
1 1 1 1 1 1 1 1 1 
1 1 1 1 1 1 1 1 1 
1 1 1 1 1 1 1 1 1 
1 1 1 1 1 1 1 1 1 
1 1 1 1 1 1 1 1 1 
1 1 1 1 1 1 1 1 1 
1 1 1 1 1 1 1 1 1 
1 1 1 1 1 1 1 1 1 
1 1 1 1 1 1 1 1 1 
1 1 1 1 1 1 1 1 1 
1 1 1 1 1 1 1 1 1 
1 1 1 1 1 1 1 1 1 
1 1 1 1 1 1 1 1 1 
1 1 1 1 1 1 1 1 1 
1 1 1 1 1 1 1 1 1 
1 1 1 1 1 1 1 1 1 
1 1 1 1 1 1 1 1 1 
1 1 1 1 1 1 1 1 1 
1 1 1 1 1 1 1 1 1 
1 1 1 1 1 1 1 1 1 
1 1 1 1 1 1 1 1 1 
1 1 1 1 1 1 1 1 1 
1 1 1 1 1 1 1 1 1 
1 1 1 1 1 1 1 1 1 
1 1 1 1 1 1 1 1 1 
1 1 1 1 1 1 1 1 1 
1 1 1 1 1 1 1 1 1 
1 1 1 1 1 1 1 1 1 
1 1 1 1 1 1 1 1 1 
1 1 1 1 1 1 1 1 1 
1 1 1 1 1 1 1 1 1 
1 1 1 1 1 1 1 1 1 
1 1 1 1 1 1 1 1 1 
1 1 1 1 1 1 1 1 1 
1 1 1 1 1 1 1 1 1 
1 1 1 1 1 1 1 1 1 
1 1 1 1 1 1 1 1 1 
1 1 1 1 1 1 1 1 1 
1 1 1 1 1 1 1 1 1 
1 1 1 1 1 1 1 1 1 
1 1 1 1 1 1 1 1 1 
1 1 1 1 1 1 1 1 1 
1 1 1 1 1 1 1 1 1 
1 1 1 1 1 1 1 1 1 
1 1 1 1 1 1 1 1 1 
1 1 1 1 1 1 1 1 1 
1 1 1 1 1 1 1 1 1 
1 1 1 1 1 1 1 1 1 
1 1 1 1 1 1 1 1 1 
1 1 1 1 1 1 1 1 1 
1 1 1 1 1 1 1 1 1 
1 1 1 1 1 1 1 1 1 
1 1 1 1 1 1 1 1 1 
1 1 1 1 1 1 1 1 1 
1 1 1 1 1 1 1 1 1 
1 1 1 1 1 1 1 1 1 
1 1 1 1 1 1 1 1 1 
1 1 1 1 1 1 1 1 1 
1 1 1 1 1 1 1 1 1 
1 1 1 1 1 1 1 1 1 
1 1 1 1 1 1 1 1 1 
1 1 1 1 1 1 1 1 1 
1 1 1 1 1 1 1 1 1 
1 1 1 1 1 1 1 1 1 
1 1 1 1 1 1 1 1 1 
1 1 1 1 1 1 1 1 1 
1 1 1 1 1 1 1 1 1 
1 1 1 1 1 1 1 1 1 
1 1 1 1 1 1 1 1 1 
1 1 1 1 1 1 1 1 1 
1 1 1 1 1 1 1 1 1 
1 1 1 1 1 1 1 1 1 
1 1 1 1 1 1 1 1 1 
1 1 1 1 1 1 1 1 1 
1 1 1 1 1 1 1 1 1 
1 1 1 1 1 1 1 1 1 
1 1 1 1 1 1 1 1 1 
1 1 1 1 1 1 1 1 1 
1 1 1 1 1 1 1 1 1 
1 1 1 1 1 1 1 1 1 
1 1 1 1 1 1 1 1 1 
1 1 1 1 1 1 1 1 1 
1 1 1 1 1 1 1 1 1 
1 1 1 1 1 1 1 1 1 
1 1 1 1 1 1 1 1 1 
1 1 1 1 1 1 1 1 1 
1 1 1 1 1 1 1 1 1 
1 1 1 1 1 1 1 1 1 
1 1 1 1 1 1 1 1 1 
1 1 1 1 1 1 1 1 1 
1 1 1 1 1 1 1 1 1 
1 1 1 1 1 1 1 1 1 
1 1 1 1 1 1 1 1 1 
1 1 1 1 1 1 1 1 1 
1 1 1 1 1 1 1 1 1 
1 1 1 1 1 1 1 1 1 
1 1 1 1 1 1 1 1 1 
1 1 1 1 1 1 1 1 1 
1 1 1 1 1 1 1 1 1 
1 1 1 1 1 1 1 1 1 
1 1 1 1 1 1 1 1 1 
1 1 1 1 1 1 1 1 1 
1 1 1 1 1 1 1 1 1 
1 1 1 1 1 1 1 1 1 
1 1 1 1 1 1 1 1 1 
1 1 1 1 1 1 1 1 1 
1 1 1 1 1 1 1 1 1 
1 1 1 1 1 1 1 1 1 
1 1 1 1 1 1 1 1 1 
1 1 1 1 1 1 1 1 1 
1 1 1 1 1 1 1 1 1 
1 1 1 1 1 1 1 1 1 
1 1 1 1 1 1 1 1 1 
1 1 1 1 1 1 1 1 1 
1 1 1 1 1 1 1 1 1 
1 1 1 1 1 1 1 1 1 
1 1 1 1 1 1 1 1 1 
1 1 1 1 1 1 1 1 1 
1 1 1 1 1 1 1 1 1 
1 1 1 1 1 1 1 1 1 
1 1 1 1 1 1 1 1 1 
1 1 1 1 1 1 1 1 1 
1 1 1 1 1 1 1 1 1 
1 1 1 1 1 1 1 1 1 
1 1 1 1 1 1 1 1 1 
1 1 1 1 1 1 1 1 1 
1 1 1 1 1 1 1 1 1 
1 1 1 1 1 1 1 1 1 
1 1 1 1 1 1 1 1 1 
1 1 1 1 1 1 1 1 1 
1 1 1 1 1 1 1 1 1 
1 1 1 1 1 1 1 1 1 
1 1 1 1 1 1 1 1 1 
1 1 1 1 1 1 1 1 1 
1 1 1 1 1 1 1 1 1 
1 1 1 1 1 1 1 1 1 
1 1 1 1 1 1 1 1 1 
1 1 1 1 1 1 1 1 1 
1 1 1 1 1 1 1 1 1 
1 1 1 1 1 1 1 1 1 
1 1 1 1 1 1 1 1 1 
1 1 1 1 1 1 1 1 1 
1 1 1 1 1 1 1 1 1 
1 1 1 1 1 1 1 1 1 
1 1 1 1 1 1 1 1 1 
1 1 1 1 1 1 1 1 1 
1 1 1 1 1 1 1 1 1 
1 1 1 1 1 1 1 1 1 
1 1 1 1 1 1 1 1 1 
1 1 1 1 1 1 1 1 1 
1 1 1 1 1 1 1 1 1 
1 1 1 1 1 1 1 1 1 
1 1 1 1 1 1 1 1 1 
1 1 1 1 1 1 1 1 1 
1 1 1 1 1 1 1 1 1 
1 1 1 1 1 1 1 1 1 
1 1 1 1 1 1 1 1 1 
1 1 1 1 1 1 1 1 1 
1 1 1 1 1 1 1 1 1 
1 1 1 1 1 1 1 1 1 
1 1 1 1 1 1 1 1 1 
1 1 1 1 1 1 1 1 1 
1 1 1 1 1 1 1 1 1 
1 1 1 1 1 1 1 1 1 
1 1 1 1 1 1 1 1 1 
1 1 1 1 1 1 1 1 1 
1 1 1 1 1 1 1 1 1 
1 1 1 1 1 1 1 1 1 
1 1 1 1 1 1 1 1 1 
1 1 1 1 1 1 1 1 1 
1 1 1 1 1 1 1 1 1 
1 1 1 1 1 1 1 1 1 
1 1 1 1 1 1 1 1 1 
1 1 1 1 1 1 1 1 1 
1 1 1 1 1 1 1 1 1 
1 1 1 1 1 1 1 1 1 
1 1 1 1 1 1 1 1 1 
1 1 1 1 1 1 1 1 1 
1 1 1 1 1 1 1 1 1 
1 1 1 1 1 1 1 1 1 
1 1 1 1 1 1 1 1 1 
1 1 1 1 1 1 1 1 1 
1 1 1 1 1 1 1 1 1 
1 1 1 1 1 1 1 1 1 
1 1 1 1 1 1 1 1 1 
1 1 1 1 1 1 1 1 1 
1 1 1 1 1 1 1 1 1 
1 1 1 1 1 1 1 1 1 
1 1 1 1 1 1 1 1 1 
1 1 1 1 1 1 1 1 1 
1 1 1 1 1 1 1 1 1 
1 1 1 1 1 1 1 1 1 
1 1 1 1 1 1 1 1 1 
1 1 1 1 1 1 1 1 1 
1 1 1 1 1 1 1 1 1 
1 1 1 1 1 1 1 1 1 
1 1 1 1 1 1 1 1 1 
1 1 1 1 1 1 1 1 1 
1 1 1 1 1 1 1 1 1 
1 1 1 1 1 1 1 1 1 
1 1 1 1 1 1 1 1 1 
1 1 1 1 1 1 1 1 1 
1 1 1 1 1 1 1 1 1 
1 1 1 1 1 1 1 1 1 
1 1 1 1 1 1 1 1 1 
1 1 1 1 1 1 1 1 1 
1 1 1 1 1 1 1 1 1 
1 1 1 1 1 1 1 1 1 
1 1 1 1 1 1 1 1 1 

NORMALS normals float
0 -0.021734 -0.999764 0 -0.999764 -0.021734 -0.69921 -0.015538 -0.714748 
0.568891 -0.581534 -0.581534 -0.0217289 0.0217289 -0.999528 -0.707023 0.0153701 -0.707023 
0.581534 -0.568891 -0.581534 0.021734 0 -0.999764 0.707107 0 -0.707107 
-0.0153701 0.707023 -0.707023 0.015538 0.69921 -0.714748 0 -0.021734 -0.999764 
0 -0.999764 -0.021734 -0.69921 -0.714748 -0.015538 0.568891 -0.581534 -0.581534 
-0.0217289 -0.0217289 -0.999528 -0.0217289 -0.999528 -0.0217289 -0.999528 -0.0217289 -0.0217289 
0 -0.021734 -0.999764 0 -0.999764 -0.021734 0 -0.021734 -0.999764 
-0.69921 -0.714748 -0.015538 0 0 -1 0.568891 -0.581534 -0.581534 
-0.69921 -0.015538 -0.714748 0 -0.714834 -0.699294 0.568891 -0.581534 -0.581534 
0 -0.707107 -0.707107 0.0217289 -0.0217289 -0.999528 0.0217289 -0.999528 -0.0217289 
0.999528 -0.0217289 -0.0217289 -0.021734 0 -0.999764 -0.999764 0 -0.021734 
0 0 -1 0 0 -1 0 0 -1 
-0.699294 0 -0.714834 0.707107 0 -0.707107 0.999764 0 -0.021734 
-0.021734 0 -0.999764 -0.999764 0 -0.021734 0 0 -1 
0 0 -1 0 0 -1 0 0 -1 
0 0.699294 -0.714834 0 0.699294 -0.714834 0.0217289 0.0217289 -0.999528 
0.999528 0.0217289 -0.0217289 -0.021734 0 -0.999764 -0.707107 0 -0.707107 
0 0 -1 0 0 -1 0 0 -1 
0 0 -1 0 0 -1 0.0217289 0.0217289 -0.999528 
0.57735 0.57735 -0.57735 0.57735 0.57735 -0.57735 -0.021734 0 -0.999764 
-0.707107 0 -0.707107 0 0 -1 0 0 -1 
0 0 -1 0 0 -1 0.021734 0 -0.999764 
0.714748 0.69921 -0.015538 0.707023 0.707023 -0.0153701 -0.0217289 0.0217289 -0.999528 
-0.707023 0.0153701 -0.707023 0 0.021734 -0.999764 0 0 -1 
0 0 -1 0 0 -1 0.021734 0 -0.999764 
0.999764 0 -0.021734 -0.0217289 0.999528 -0.0217289 -0.568891 0.581534 -0.581534 
-0.581534 0.568891 -0.581534 -0.021734 0 -0.999764 0 0 -1 
0 0 -1 0.021734 0 -0.999764 0.999764 0 -0.021734 
-0.0217289 0.0217289 -0.999528 -0.707023 0.0153701 -0.707023 0 0.021734 -0.999764 
0 0 -1 0.021734 0 -0.999764 0.999764 0 -0.021734 
-0.0217289 0.999528 -0.0217289 -0.568891 0.581534 -0.581534 -0.581534 0.568891 -0.581534 
-0.021734 0 -0.999764 0.0217289 0.0217289 -0.999528 0.999528 0.0217289 -0.0217289 
0 0.021734 -0.999764 -0.69921 0.015538 -0.714748 0.568891 0.581534 -0.581534 
0.57735 0.57735 -0.57735 0 0.999764 -0.021734 -0.0217289 -0.999528 0.0217289 
-0.707023 -0.707023 0.0153701 0.573074 -0.585809 -0.573074 0 -1 0 
0 -0.714834 -0.699294 0 -1 0 0.015538 -0.714748 -0.69921 
0.021734 -0.999764 0 0.707107 -0.707107 0 -0.021734 -0.999764 0 
-0.999764 -0.021734 0 0 -1 0 -0.699294 -0.714834 0 
0.707107 -0.707107 0 0.714748 -0.015538 -0.69921 -1 0 0 
0.714834 0 -0.699294 -0.714834 -0.699294 0 0.714834 0 -0.699294 
-0.707023 -0.0153701 -0.707023 -0.707023 -0.707023 -0.0153701 -0.999528 -0.0217289 -0.0217289 
0.57735 0.57735 -0.57735 0.707023 0.0153701 -0.707023 -0.707107 0 -0.707107 
-0.707107 0 -0.707107 0.585809 0.573074 -0.573074 0.573074 0.585809 -0.573074 
0.0153701 0.707023 -0.707023 -0.707023 0.0153701 -0.707023 -0.707023 0.0153701 -0.707023 
0.714834 0 -0.699294 -0.0217289 0.999528 -0.0217289 -0.573074 0.585809 -0.573074 
-0.581534 0.568891 -0.581534 -0.581534 0.568891 -0.581534 0.714834 0 -0.699294 
-0.707023 0.0153701 -0.707023 -0.707023 0.0153701 -0.707023 0.714834 0 -0.699294 
-0.0153701 0.707023 -0.707023 -0.573074 0.585809 -0.573074 -0.581534 0.568891 -0.581534 
-0.581534 0.568891 -0.581534 0.714834 0 -0.699294 -0.707023 0.0153701 -0.707023 
-0.707023 0.0153701 -0.707023 0.581534 0.568891 -0.581534 0.707107 0 -0.707107 
-0.0153701 0.707023 -0.707023 -0.573074 0.585809 -0.573074 0 0 -1 
-0.573074 0.573074 -0.585809 0.573074 -0.573074 -0.585809 -0.0217289 0.0217289 -0.999528 
-0.707023 0.0153701 -0.707023 0.573074 -0.573074 -0.585809 0 0 -1 
0.0217289 -0.0217289 -0.999528 0.0153701 -0.707023 -0.707023 0.707023 -0.0153701 -0.707023 
-0.0153701 0.707023 -0.707023 -0.573074 0.573074 -0.585809 -0.573074 0.573074 -0.585809 
0 0 -1 0.699294 0 -0.714834 0 0 -1 
-0.699294 0 -0.714834 0.699294 0 -0.714834 0 0.021734 -0.999764 
-0.69921 0.015538 -0.714748 0.577255 -0.564427 -0.590083 -0.568891 0.581534 -0.581534 
0.573074 -0.573074 -0.585809 -0.573074 0.573074 -0.585809 0 0 -1 
0.573074 -0.573074 -0.585809 -0.573074 0.573074 -0.585809 0.568891 -0.581534 -0.581534 
-0.577255 0.564427 -0.590083 0 -0.021734 -0.999764 0.69921 -0.015538 -0.714748 
0 0 -1 -0.699294 0 -0.714834 0.699294 0 -0.714834 
0 0.021734 -0.999764 -0.69921 0.015538 -0.714748 0.69921 0.015538 -0.714748 
0 0.707107 -0.707107 -0.0153701 -0.707023 0.707023 0 -0.714834 0.699294 
0 -0.714834 0.699294 0.015538 -0.714748 0.69921 -0.021734 -0.999764 0 
-0.999764 -0.021734 0 0 -1 0 0 -1 0 
0 -0.714834 0.699294 0 -0.714834 0.699294 0 -0.714834 0.699294 
0 -0.714834 0.699294 0 -1 0 0.69921 -0.015538 -0.714748 
0 -0.999764 -0.021734 0.0217289 -0.0217289 -0.999528 0.0217289 -0.999528 -0.0217289 
0.999528 -0.0217289 -0.0217289 -1 0 0 0.699294 0 -0.714834 
0.021734 0 -0.999764 0.999764 0 -0.021734 -0.714834 -0.699294 0 
0.699294 0 -0.714834 0.021734 0 -0.999764 0.999764 0 -0.021734 
-0.707107 -0.707107 0 -0.707107 -0.707107 0 0.699294 0 -0.714834 
0.021734 0 -0.999764 0.999764 0 -0.021734 -0.707023 -0.0153701 -0.707023 
-0.707023 -0.707023 -0.0153701 -0.999528 -0.0217289 -0.0217289 0.573074 0.573074 -0.585809 
0 0.699294 -0.714834 0 0 -1 0.021734 0 -0.999764 
0.999764 0 -0.021734 -0.707023 0.0153701 -0.707023 -0.999528 0.0217289 -0.0217289 
0.699294 0 -0.714834 0 0 -1 0 0 -1 
0.021734 0 -0.999764 0.999764 0 -0.021734 -0.0217289 0.999528 -0.0217289 
-0.699294 0.714834 0 -0.581534 0.568891 -0.581534 -0.714748 0.69921 -0.015538 
0.699294 0 -0.714834 0 0 -1 0 0 -1 
0.021734 0 -0.999764 0.999764 0 -0.021734 -0.707107 0 -0.707107 
-0.999764 0 -0.021734 0.699294 0 -0.714834 0 0 -1 
0 0 -1 0.021734 0 -0.999764 0.999764 0 -0.021734 
-0.021734 0 -0.999764 -0.999764 0 -0.021734 0 0.699294 -0.714834 
-0.573074 0.573074 -0.585809 0.699294 0 -0.714834 0 0 -1 
0 0 -1 0.021734 0 -0.999764 0.999764 0 -0.021734 
-0.0222113 0.0222113 -0.999507 -0.999764 0.021734 0 0 0.021734 -0.999764 
-0.699294 0 -0.714834 0.699294 0 -0.714834 0 0 -1 
0 0 -1 0.021734 0 -0.999764 0.999764 0 -0.021734 
-0.021734 0.999764 0 -0.69921 0.714748 -0.015538 -0.714748 0.69921 -0.015538 
-0.021734 0 -0.999764 0 0.699294 -0.714834 -0.573074 0.573074 -0.585809 
0.573074 -0.573074 -0.585809 0 -0.699294 -0.714834 0 0 -1 
0.021734 0 -0.999764 0.999764 0 -0.021734 -0.0222113 0.0222113 -0.999507 
-0.999764 0.021734 0 0 0.021734 -0.999764 -0.699294 0 -0.714834 
0.699294 0 -0.714834 0.021734 0 -0.999764 0.999764 0 -0.021734 
-0.021734 0.999764 0 -0.69921 0.714748 -0.015538 -0.714748 0.69921 -0.015538 
-0.021734 0 -0.999764 0 0.699294 -0.714834 -0.573074 0.573074 -0.585809 
0.699294 0 -0.714834 0.021734 0 -0.999764 0.999764 0 -0.021734 
-0.0222113 0.0222113 -0.999507 -0.999764 0.021734 0 0 0.021734 -0.999764 
-0.699294 0 -0.714834 0.699294 0 -0.714834 0.021734 0 -0.999764 