# vtk DataFile Version 3.0
vtk output
ASCII
DATASET POLYDATA
POINTS 4754 float
41 131 70.0588 41 130.059 71 40.0588 131 71 
41.9412 131 71 41 131.941 71 45 124 71.0588 
45 123.059 72 44.0588 124 72 46 124 71.0588 
46 123.059 72 46.9412 124 72 45 125 71.0588 
44.0588 125 72 45.9412 125 72 46 124.941 72 
45 125.941 72 41 128 71.0588 41 127.059 72 
40.0588 128 72 42 128 71.0588 42 127.059 72 
42.9412 128 72 40 129 71.0588 40 128.059 72 
39.0588 129 72 41 129 71.0588 42 129 71.0588 
42.9412 129 72 40 129.941 72 40.0588 130 72 
41 130 71.0588 42 130 71.0588 42.9412 130 72 
40.0588 131 72 42 131 71.0588 42.9412 131 72 
41 132 71.0588 40.0588 132 72 42 132 71.0588 
42.9412 132 72 40 133 71.0588 40 132.059 72 
39.0588 133 72 41 133 71.0588 42 133 71.0588 
42.9412 133 72 29 134 71.0588 29 133.059 72 
28.0588 134 72 30 134 71.0588 30 133.059 72 
31 134 71.0588 31 133.059 72 32 134 71.0588 
32 133.059 72 32.9412 134 72 39 134 71.0588 
39 133.059 72 38.0588 134 72 40 134 71.0588 
41 134 71.0588 42 134 71.0588 42.9412 134 72 
29 135 71.0588 28.0588 135 72 30 135 71.0588 
31 135 71.0588 32 135 71.0588 32.9412 135 72 
39 135 71.0588 38.0588 135 72 40 135 71.0588 
41 135 71.0588 41.9412 135 72 42 134.941 72 
29 135.941 72 30 135.941 72 30.0588 136 72 
31 136 71.0588 32 136 71.0588 33 135.059 72 
33 136 71.0588 34 136 71.0588 34 135.059 72 
35 136 71.0588 35 135.059 72 36 136 71.0588 
36 135.059 72 36.9412 136 72 39 135.941 72 
40 135.941 72 41 135.941 72 31 137 71.0588 
30.0588 137 72 32 137 71.0588 33 137 71.0588 
34 137 71.0588 35 137 71.0588 35.9412 137 72 
36 136.941 72 31 137.941 72 32 137.941 72 
33 137.941 72 34 137.941 72 35 137.941 72 
42 118 72.0588 42 117.059 73 41.0588 118 73 
42.9412 118 73 42 119 72.0588 41.0588 119 73 
42.9412 119 73 42 120 72.0588 41.0588 120 73 
42.9412 120 73 42 121 72.0588 41.0588 121 73 
43 120.059 73 43 121 72.0588 44 121 72.0588 
44 120.059 73 44.9412 121 73 42 121.941 73 
43 121.941 73 43.0588 122 73 44 122 72.0588 
44.9412 122 73 44 123 72.0588 43.0588 123 73 
45 122.059 73 45 123 72.0588 45.9412 123 73 
44 124 72.0588 43.0588 124 73 46 123.059 73 
46.9412 124 73 44 125 72.0588 43.0588 125 73 
45.9412 125 73 46 124.941 73 44 125.941 73 
45 125.941 73 40 127 72.0588 40 126.059 73 
39.0588 127 73 41 127 72.0588 41 126.059 73 
42 127 72.0588 42 126.059 73 42.9412 127 73 
40 128 72.0588 39.0588 128 73 42.9412 128 73 
27 129 72.0588 27 128.059 73 26.0588 129 73 
28 129 72.0588 28 128.059 73 29 129 72.0588 
29 128.059 73 30 129 72.0588 30 128.059 73 
31 129 72.0588 31 128.059 73 32 129 72.0588 
32 128.059 73 33 129 72.0588 33 128.059 73 
34 129 72.0588 34 128.059 73 35 129 72.0588 
35 128.059 73 36 129 72.0588 36 128.059 73 
37 129 72.0588 37 128.059 73 38 129 72.0588 
38 128.059 73 39 129 72.0588 39 128.059 73 
42.9412 129 73 27 129.941 73 27.0588 130 73 
28 130 72.0588 28.9412 130 73 29 129.941 73 
30 129.941 73 31 129.941 73 32 129.941 73 
33 129.941 73 34 129.941 73 35 129.941 73 
36 129.941 73 37 129.941 73 38 129.941 73 
39 129.941 73 40 130 72.0588 39.0588 130 73 
42.9412 130 73 28 131 72.0588 27.0588 131 73 
28.9412 131 73 40 131 72.0588 39.0588 131 73 
42.9412 131 73 28 132 72.0588 27.0588 132 73 
28.9412 132 73 40 132 72.0588 39.0588 132 73 
42.9412 132 73 28 133 72.0588 27.0588 133 73 
29 132.059 73 29 133 72.0588 30 133 72.0588 
30 132.059 73 31 133 72.0588 31 132.059 73 
32 133 72.0588 32 132.059 73 32.9412 133 73 
38 133 72.0588 38 132.059 73 37.0588 133 73 
39 133 72.0588 39 132.059 73 42.9412 133 73 
28 133.941 73 28.0588 134 73 32.9412 134 73 
38 134 72.0588 37.0588 134 73 42.9412 134 73 
28.0588 135 73 33 134.059 73 33 135 72.0588 
34 135 72.0588 34 134.059 73 35 135 72.0588 
35 134.059 73 36 135 72.0588 36 134.059 73 
36.9412 135 73 38 134.941 73 38.0588 135 73 
41.9412 135 73 42 134.941 73 29 135.941 73 
30 136 72.0588 29.0588 136 73 36.9412 136 73 
39 135.941 73 40 135.941 73 41 135.941 73 
30 136.941 73 30.0588 137 73 35.9412 137 73 
36 136.941 73 31 137.941 73 32 137.941 73 
33 137.941 73 34 137.941 73 35 137.941 73 
42 117 73.0588 42 116.059 74 41.0588 117 74 
42.9412 117 74 41 118 73.0588 41 117.059 74 
40.0588 118 74 43 118 73.0588 43 117.059 74 
44 118 73.0588 44 117.059 74 45 118 73.0588 
45 117.059 74 46 118 73.0588 46 117.059 74 
46.9412 118 74 40 119 73.0588 40 118.059 74 
39.0588 119 74 41 119 73.0588 43 119 73.0588 
44 119 73.0588 45 119 73.0588 46 119 73.0588 
46.9412 119 74 39 120 73.0588 39 119.059 74 
38.0588 120 74 40 120 73.0588 41 120 73.0588 
43 120 73.0588 44 120 73.0588 45 120 73.0588 
46 120 73.0588 47 119.059 74 47 120 73.0588 
48 120 73.0588 48 119.059 74 48.9412 120 74 
38 121 73.0588 38 120.059 74 37.0588 121 74 
39 121 73.0588 40 121 73.0588 41 121 73.0588 
45 121 73.0588 46 121 73.0588 47 121 73.0588 
47.9412 121 74 48 120.941 74 35 122 73.0588 
35 121.059 74 34.0588 122 74 36 122 73.0588 
36 121.059 74 37 122 73.0588 37 121.059 74 
38 122 73.0588 39 122 73.0588 40 122 73.0588 
41 122 73.0588 42 122 73.0588 43 122 73.0588 
45 122 73.0588 46 122 73.0588 46.9412 122 74 
47 121.941 74 34 123 73.0588 34 122.059 74 
33.0588 123 74 35 123 73.0588 36 123 73.0588 
37 123 73.0588 38 123 73.0588 39 123 73.0588 
40 123 73.0588 41 123 73.0588 42 123 73.0588 
43 123 73.0588 46 123 73.0588 46.9412 123 74 
33 124 73.0588 33 123.059 74 32.0588 124 74 
34 124 73.0588 35 124 73.0588 36 124 73.0588 
37 124 73.0588 38 124 73.0588 39 124 73.0588 
40 124 73.0588 41 124 73.0588 42 124 73.0588 
43 124 73.0588 46.9412 124 74 32 125 73.0588 
32 124.059 74 31.0588 125 74 33 125 73.0588 
34 125 73.0588 35 125 73.0588 36 125 73.0588 
37 125 73.0588 38 125 73.0588 39 125 73.0588 
40 125 73.0588 41 125 73.0588 42 125 73.0588 
43 125 73.0588 45.9412 125 74 46 124.941 74 
31 126 73.0588 31 125.059 74 30.0588 126 74 
32 126 73.0588 33 126 73.0588 34 126 73.0588 
35 126 73.0588 36 126 73.0588 37 126 73.0588 
38 126 73.0588 39 126 73.0588 40 126 73.0588 
41 126 73.0588 42 126 73.0588 42.9412 126 74 
43 125.941 74 44 125.941 74 45 125.941 74 
30 127 73.0588 30 126.059 74 29.0588 127 74 
31 127 73.0588 32 127 73.0588 33 127 73.0588 
34 127 73.0588 35 127 73.0588 36 127 73.0588 
37 127 73.0588 38 127 73.0588 39 127 73.0588 
42.9412 127 74 27 128 73.0588 27 127.059 74 
26.0588 128 74 28 128 73.0588 28 127.059 74 
29 128 73.0588 29 127.059 74 30 128 73.0588 
31 128 73.0588 32 128 73.0588 33 128 73.0588 
34 128 73.0588 35 128 73.0588 36 128 73.0588 
37 128 73.0588 38 128 73.0588 39 128 73.0588 
42.9412 128 74 26.0588 129 74 42.9412 129 74 
27 130 73.0588 26.0588 130 74 29 130 73.0588 
30 130 73.0588 31 130 73.0588 32 130 73.0588 
33 130 73.0588 34 130 73.0588 35 130 73.0588 
36 130 73.0588 37 130 73.0588 38 130 73.0588 
39 130 73.0588 42.9412 130 74 27 131 73.0588 
26.0588 131 74 29 131 73.0588 30 131 73.0588 
31 131 73.0588 32 131 73.0588 33 131 73.0588 
34 131 73.0588 35 131 73.0588 36 131 73.0588 
37 131 73.0588 38 131 73.0588 39 131 73.0588 
42.9412 131 74 27 132 73.0588 26.0588 132 74 
29 132 73.0588 30 132 73.0588 31 132 73.0588 
32 132 73.0588 33 132 73.0588 34 132 73.0588 
35 132 73.0588 36 132 73.0588 37 132 73.0588 
38 132 73.0588 39 132 73.0588 42.9412 132 74 
27 133 73.0588 26.0588 133 74 33 133 73.0588 
34 133 73.0588 35 133 73.0588 36 133 73.0588 
37 133 73.0588 42.9412 133 74 27 133.941 74 
28 133.941 74 28.0588 134 74 33 134 73.0588 
34 134 73.0588 35 134 73.0588 36 134 73.0588 
37 134 73.0588 42.9412 134 74 28.0588 135 74 
37 135 73.0588 38 135 73.0588 41.9412 135 74 
42 134.941 74 29 136 73.0588 28.0588 136 74 
36.9412 136 74 37 135.941 74 38 135.941 74 
39 135.941 74 40 135.941 74 41 135.941 74 
29 137 73.0588 28.0588 137 74 30 137 73.0588 
35.9412 137 74 36 136.941 74 29 137.941 74 
30 137.941 74 31 137.941 74 32 137.941 74 
33 137.941 74 34 137.941 74 35 137.941 74 
42 116.059 75 41.0588 117 75 42.9412 117 75 
41 117.059 75 40.0588 118 75 43 117.059 75 
44 117.059 75 45 117.059 75 46 117.059 75 
46.9412 118 75 40 118.059 75 39.0588 119 75 
46.9412 119 75 39 119.059 75 38.0588 120 75 
47 119.059 75 48 119.059 75 48.9412 120 75 
38 120.059 75 37.0588 121 75 47.9412 121 75 
48 120.941 75 35 121.059 75 34.0588 122 75 
36 121.059 75 37 121.059 75 46.9412 122 75 
47 121.941 75 34 122.059 75 33.0588 123 75 
46 123 74.9412 45.9412 123 75 46 122.941 75 
32 124 74.0588 32 123.059 75 31.0588 124 75 
33 123.059 75 46 124 74.9412 45.9412 124 75 
25 125 74.0588 25 124.059 75 24.0588 125 75 
26 125 74.0588 26 124.059 75 26.9412 125 75 
30 125 74.0588 30 124.059 75 29.0588 125 75 
31 125 74.0588 31 124.059 75 44 125 74.9412 
43.9412 125 75 44 124.941 75 45 124.941 75 
45 125 74.9412 25 125.941 75 25.0588 126 75 
26 126 74.0588 26.9412 126 75 30 126 74.0588 
29.0588 126 75 42.9412 126 75 43 125.941 75 
26 127 74.0588 25.0588 127 75 27 126.059 75 
27 127 74.0588 28 127 74.0588 28 126.059 75 
29 127 74.0588 29 126.059 75 42.9412 127 75 
26 128 74.0588 25.0588 128 75 42.9412 128 75 
26 129 74.0588 25.0588 129 75 42 129 74.9412 
41.9412 129 75 42 128.941 75 26 129.941 75 
26.0588 130 75 42 130 74.9412 41.9412 130 75 
26.0588 131 75 42 131 74.9412 41.9412 131 75 
26.0588 132 75 42 131.059 75 42.9412 132 75 
26.0588 133 75 42.9412 133 75 27 133.941 75 
28 134 74.0588 27.0588 134 75 42 134 74.9412 
41.9412 134 75 42 133.941 75 28 135 74.0588 
27.0588 135 75 38 135 74.9412 37.9412 135 75 
38 134.941 75 39 134.941 75 39 135 74.9412 
40 134.941 75 40 135 74.9412 41 134.941 75 
41 135 74.9412 28 136 74.0588 27.0588 136 75 
36 136 74.9412 35.9412 136 75 36 135.941 75 
37 135.941 75 28 136.941 75 28.0588 137 75 
34 137 74.9412 33.9412 137 75 34 136.941 75 
35 136.941 75 35 137 74.9412 29 137.941 75 
30 137.941 75 31 137.941 75 32 137.941 75 
33 137.941 75 42 116.059 76 41.0588 117 76 
42.9412 117 76 41 117.059 76 40.0588 118 76 
43 117.059 76 44 117.059 76 45 117.059 76 
46 117.059 76 46.9412 118 76 40 118.059 76 
39.0588 119 76 46.9412 119 76 39 119.059 76 
38.0588 120 76 47 119.059 76 48 119.059 76 
48.9412 120 76 38 120.059 76 37.0588 121 76 
47.9412 121 76 48 120.941 76 35 122 75.9412 
[...]
POINT_DATA 4754
SCALARS scalars float
LOOKUP_TABLE default
1 1 1 1 1 1 1 1 1 
1 1 1 1 1 1 1 1 1 
1 1 1 1 1 1 1 1 1 
1 1 1 1 1 1 1 1 1 
1 1 1 1 1 1 1 1 1 
1 1 1 1 1 1 1 1 1 
1 1 1 1 1 1 1 1 1 
1 1 1 1 1 1 1 1 1 
1 1 1 1 1 1 1 1 1 
1 1 1 1 1 1 1 1 1 
1 1 1 1 1 1 1 1 1 
1 1 1 1 1 1 1 1 1 
1 1 1 1 1 1 1 1 1 
1 1 1 1 1 1 1 1 1 
1 1 1 1 1 1 1 1 1 
1 1 1 1 1 1 1 1 1 
1 1 1 1 1 1 1 1 1 
1 1 1 1 1 1 1 1 1 
1 1 1 1 1 1 1 1 1 
1 1 1 1 1 1 1 1 1 
1 1 1 1 1 1 1 1 1 
1 1 1 1 1 1 1 1 1 
1 1 1 1 1 1 1 1 1 
1 1 1 1 1 1 1 1 1 
1 1 1 1 1 1 1 1 1 
1 1 1 1 1 1 1 1 1 
1 1 1 1 1 1 1 1 1 
1 1 1 1 1 1 1 1 1 
1 1 1 1 1 1 1 1 1 
1 1 1 1 1 1 1 1 1 
1 1 1 1 1 1 1 1 1 
1 1 1 1 1 1 1 1 1 
1 1 1 1 1 1 1 1 1 
1 1 1 1 1 1 1 1 1 
1 1 1 1 1 1 1 1 1 
1 1 1 1 1 1 1 1 1 
1 1 1 1 1 1 1 1 1 
1 1 1 1 1 1 1 1 1 
1 1 1 1 1 1 1 1 1 
1 1 1 1 1 1 1 1 1 
1 1 1 1 1 1 1 1 1 
1 1 1 1 1 1 1 1 1 
1 1 1 1 1 1 1 1 1 
1 1 1 1 1 1 1 1 1 
1 1 1 1 1 1 1 1 1 
1 1 1 1 1 1 1 1 1 
1 1 1 1 1 1 1 1 1 
1 1 1 1 1 1 1 1 1 
1 1 1 1 1 1 1 1 1 
1 1 1 1 1 1 1 1 1 
1 1 1 1 1 1 1 1 1 
1 1 1 1 1 1 1 1 1 
1 1 1 1 1 1 1 1 1 
1 1 1 1 1 1 1 1 1 
1 1 1 1 1 1 1 1 1 
1 1 1 1 1 1 1 1 1 
1 1 1 1 1 1 1 1 1 
1 1 1 1 1 1 1 1 1 
1 1 1 1 1 1 1 1 1 
1 1 1 1 1 1 1 1 1 
1 1 1 1 1 1 1 1 1 
1 1 1 1 1 1 1 1 1 
1 1 1 1 1 1 1 1 1 
1 1 1 1 1 1 1 1 1 
1 1 1 1 1 1 1 1 1 
1 1 1 1 1 1 1 1 1 
1 1 1 1 1 1 1 1 1 
1 1 1 1 1 1 1 1 1 
1 1 1 1 1 1 1 1 1 
1 1 1 1 1 1 1 1 1 
1 1 1 1 1 1 1 1 1 
1 1 1 1 1 1 1 1 1 
1 1 1 1 1 1 1 1 1 
1 1 1 1 1 1 1 1 1 
1 1 1 1 1 1 1 1 1 
1 1 1 1 1 1 1 1 1 
1 1 1 1 1 1 1 1 1 
1 1 1 1 1 1 1 1 1 
1 1 1 1 1 1 1 1 1 
1 1 1 1 1 1 1 1 1 
1 1 1 1 1 1 1 1 1 
1 1 1 1 1 1 1 1 1 
1 1 1 1 1 1 1 1 1 
1 1 1 1 1 1 1 1 1 
1 1 1 1 1 1 1 1 1 
1 1 1 1 1 1 1 1 1 
1 1 1 1 1 1 1 1 1 
1 1 1 1 1 1 1 1 1 
1 1 1 1 1 1 1 1 1 
1 1 1 1 1 1 1 1 1 
1 1 1 1 1 1 1 1 1 
1 1 1 1 1 1 1 1 1 
1 1 1 1 1 1 1 1 1 
1 1 1 1 1 1 1 1 1 
1 1 1 1 1 1 1 1 1 
1 1 1 1 1 1 1 1 1 
1 1 1 1 1 1 1 1 1 
1 1 1 1 1 1 1 1 1 
1 1 1 1 1 1 1 1 1 
1 1 1 1 1 1 1 1 1 
1 1 1 1 1 1 1 1 1 
1 1 1 1 1 1 1 1 1 
1 1 1 1 1 1 1 1 1 
1 1 1 1 1 1 1 1 1 
1 1 1 1 1 1 1 1 1 
1 1 1 1 1 1 1 1 1 
1 1 1 1 1 1 1 1 1 
1 1 1 1 1 1 1 1 1 
1 1 1 1 1 1 1 1 1 
1 1 1 1 1 1 1 1 1 
1 1 1 1 1 1 1 1 1 
1 1 1 1 1 1 1 1 1 
1 1 1 1 1 1 1 1 1 
1 1 1 1 1 1 1 1 1 
1 1 1 1 1 1 1 1 1 
1 1 1 1 1 1 1 1 1 
1 1 1 1 1 1 1 1 1 
1 1 1 1 1 1 1 1 1 
1 1 1 1 1 1 1 1 1 
1 1 1 1 1 1 1 1 1 
1 1 1 1 1 1 1 1 1 
1 1 1 1 1 1 1 1 1 
1 1 1 1 1 1 1 1 1 
1 1 1 1 1 1 1 1 1 
1 1 1 1 1 1 1 1 1 
1 1 1 1 1 1 1 1 1 
1 1 1 1 1 1 1 1 1 
1 1 1 1 1 1 1 1 1 
1 1 1 1 1 1 1 1 1 
1 1 1 1 1 1 1 1 1 
1 1 1 1 1 1 1 1 1 
1 1 1 1 1 1 1 1 1 
1 1 1 1 1 1 1 1 1 
1 1 1 1 1 1 1 1 1 
1 1 1 1 1 1 1 1 1 
1 1 1 1 1 1 1 1 1 
1 1 1 1 1 1 1 1 1 
1 1 1 1 1 1 1 1 1 
1 1 1 1 1 1 1 1 1 
1 1 1 1 1 1 1 1 1 
1 1 1 1 1 1 1 1 1 
1 1 1 1 1 1 1 1 1 
1 1 1 1 1 1 1 1 1 
1 1 1 1 1 1 1 1 1 
1 1 1 1 1 1 1 1 1 
1 1 1 1 1 1 1 1 1 
1 1 1 1 1 1 1 1 1 
1 1 1 1 1 1 1 1 1 
1 1 1 1 1 1 1 1 1 
1 1 1 1 1 1 1 1 1 
1 1 1 1 1 1 1 1 1 
1 1 1 1 1 1 1 1 1 
1 1 1 1 1 1 1 1 1 
1 1 1 1 1 1 1 1 1 
1 1 1 1 1 1 1 1 1 
1 1 1 1 1 1 1 1 1 
1 1 1 1 1 1 1 1 1 
1 1 1 1 1 1 1 1 1 
1 1 1 1 1 1 1 1 1 
1 1 1 1 1 1 1 1 1 
1 1 1 1 1 1 1 1 1 
1 1 1 1 1 1 1 1 1 
1 1 1 1 1 1 1 1 1 
1 1 1 1 1 1 1 1 1 
1 1 1 1 1 1 1 1 1 
1 1 1 1 1 1 1 1 1 
1 1 1 1 1 1 1 1 1 
1 1 1 1 1 1 1 1 1 
1 1 1 1 1 1 1 1 1 
1 1 1 1 1 1 1 1 1 
1 1 1 1 1 1 1 1 1 
1 1 1 1 1 1 1 1 1 
1 1 1 1 1 1 1 1 1 
1 1 1 1 1 1 1 1 1 
1 1 1 1 1 1 1 1 1 
1 1 1 1 1 1 1 1 1 
1 1 1 1 1 1 1 1 1 
1 1 1 1 1 1 1 1 1 
1 1 1 1 1 1 1 1 1 
1 1 1 1 1 1 1 1 1 
1 1 1 1 1 1 1 1 1 
1 1 1 1 1 1 1 1 1 
1 1 1 1 1 1 1 1 1 
1 1 1 1 1 1 1 1 1 
1 1 1 1 1 1 1 1 1 
1 1 1 1 1 1 1 1 1 
1 1 1 1 1 1 1 1 1 
1 1 1 1 1 1 1 1 1 
1 1 1 1 1 1 1 1 1 
1 1 1 1 1 1 1 1 1 
1 1 1 1 1 1 1 1 1 
1 1 1 1 1 1 1 1 1 
1 1 1 1 1 1 1 1 1 
1 1 1 1 1 1 1 1 1 
1 1 1 1 1 1 1 1 1 
1 1 1 1 1 1 1 1 1 
1 1 1 1 1 1 1 1 1 
1 1 1 1 1 1 1 1 1 
1 1 1 1 1 1 1 1 1 
1 1 1 1 1 1 1 1 1 
1 1 1 1 1 1 1 1 1 
1 1 1 1 1 1 1 1 1 
1 1 1 1 1 1 1 1 1 
1 1 1 1 1 1 1 1 1 
1 1 1 1 1 1 1 1 1 
1 1 1 1 1 1 1 1 1 
1 1 1 1 1 1 1 1 1 
1 1 1 1 1 1 1 1 1 
1 1 1 1 1 1 1 1 1 
1 1 1 1 1 1 1 1 1 
1 1 1 1 1 1 1 1 1 
1 1 1 1 1 1 1 1 1 
1 1 1 1 1 1 1 1 1 
1 1 1 1 1 1 1 1 1 
1 1 1 1 1 1 1 1 1 
1 1 1 1 1 1 1 1 1 
1 1 1 1 1 1 1 1 1 
1 1 1 1 1 1 1 1 1 
1 1 1 1 1 1 1 1 1 
1 1 1 1 1 1 1 1 1 
1 1 1 1 1 1 1 1 1 
1 1 1 1 1 1 1 1 1 
1 1 1 1 1 1 1 1 1 
1 1 1 1 1 1 1 1 1 
1 1 1 1 1 1 1 1 1 
1 1 1 1 1 1 1 1 1 
1 1 1 1 1 1 1 1 1 
1 1 1 1 1 1 1 1 1 
1 1 1 1 1 1 1 1 1 
1 1 1 1 1 1 1 1 1 
1 1 1 1 1 1 1 1 1 
1 1 1 1 1 1 1 1 1 
1 1 1 1 1 1 1 1 1 
1 1 1 1 1 1 1 1 1 
1 1 1 1 1 1 1 1 1 
1 1 1 1 1 1 1 1 1 
1 1 1 1 1 1 1 1 1 
1 1 1 1 1 1 1 1 1 
1 1 1 1 1 1 1 1 1 
1 1 1 1 1 1 1 1 1 
1 1 1 1 1 1 1 1 1 
1 1 1 1 1 1 1 1 1 
1 1 1 1 1 1 1 1 1 
1 1 1 1 1 1 1 1 1 
1 1 1 1 1 1 1 1 1 
1 1 1 1 1 1 1 1 1 
1 1 1 1 1 1 1 1 1 
1 1 1 1 1 1 1 1 1 
1 1 1 1 1 1 1 1 1 
1 1 1 1 1 1 1 1 1 
1 1 1 1 1 1 1 1 1 
1 1 1 1 1 1 1 1 1 
1 1 1 1 1 1 1 1 1 
1 1 1 1 1 1 1 1 1 
1 1 1 1 1 1 1 1 1 
1 1 1 1 1 1 1 1 1 
1 1 1 1 1 1 1 1 1 
1 1 1 1 1 1 1 1 1 
1 1 1 1 1 1 1 1 1 
1 1 1 1 1 1 1 1 1 
1 1 1 1 1 1 1 1 1 
1 1 1 1 1 1 1 1 1 
1 1 1 1 1 1 1 1 1 
1 1 1 1 1 1 1 1 1 
1 1 1 1 1 1 1 1 1 
1 1 1 1 1 1 1 1 1 
1 1 1 1 1 1 1 1 1 
1 1 1 1 1 1 1 1 1 
1 1 1 1 1 1 1 1 1 
1 1 1 1 1 1 1 1 1 
1 1 1 1 1 1 1 1 1 
1 1 1 1 1 1 1 1 1 
1 1 1 1 1 1 1 1 1 
1 1 1 1 1 1 1 1 1 
1 1 1 1 1 1 1 1 1 
1 1 1 1 1 1 1 1 1 
1 1 1 1 1 1 1 1 1 
1 1 1 1 1 1 1 1 1 
1 1 1 1 1 1 1 1 1 
1 1 1 1 1 1 1 1 1 
1 1 1 1 1 1 1 1 1 
1 1 1 1 1 1 1 1 1 
1 1 1 1 1 1 1 1 1 
1 1 1 1 1 1 1 1 1 
1 1 1 1 1 1 1 1 1 
1 1 1 1 1 1 1 1 1 
1 1 1 1 1 1 1 1 1 
1 1 1 1 1 1 1 1 1 
1 1 1 1 1 1 1 1 1 
1 1 1 1 1 1 1 1 1 
1 1 1 1 1 1 1 1 1 
1 1 1 1 1 1 1 1 1 
1 1 1 1 1 1 1 1 1 
1 1 1 1 1 1 1 1 1 
1 1 1 1 1 1 1 1 1 
1 1 1 1 1 1 1 1 1 
1 1 1 1 1 1 1 1 1 
1 1 1 1 1 1 1 1 1 
1 1 1 1 1 1 1 1 1 
1 1 1 1 1 1 1 1 1 
1 1 1 1 1 1 1 1 1 
1 1 1 1 1 1 1 1 1 
1 1 1 1 1 1 1 1 1 
1 1 1 1 1 1 1 1 1 
1 1 1 1 1 1 1 1 1 
1 1 1 1 1 1 1 1 1 
1 1 1 1 1 1 1 1 1 
1 1 1 1 1 1 1 1 1 
1 1 1 1 1 1 1 1 1 
1 1 1 1 1 1 1 1 1 
1 1 1 1 1 1 1 1 1 
1 1 1 1 1 1 1 1 1 
1 1 1 1 1 1 1 1 1 
1 1 1 1 1 1 1 1 1 
1 1 1 1 1 1 1 1 1 
1 1 1 1 1 1 1 1 1 
1 1 1 1 1 1 1 1 1 
1 1 1 1 1 1 1 1 1 
1 1 1 1 1 1 1 1 1 
1 1 1 1 1 1 1 1 1 
1 1 1 1 1 1 1 1 1 
1 1 1 1 1 1 1 1 1 
1 1 1 1 1 1 1 1 1 
1 1 1 1 1 1 1 1 1 
1 1 1 1 1 1 1 1 1 
1 1 1 1 1 1 1 1 1 
1 1 1 1 1 1 1 1 1 
1 1 1 1 1 1 1 1 1 
1 1 1 1 1 1 1 1 1 
1 1 1 1 1 1 1 1 1 
1 1 1 1 1 1 1 1 1 
1 1 1 1 1 1 1 1 1 
1 1 1 1 1 1 1 1 1 
1 1 1 1 1 1 1 1 1 
1 1 1 1 1 1 1 1 1 
1 1 1 1 1 1 1 1 1 
1 1 1 1 1 1 1 1 1 
1 1 1 1 1 1 1 1 1 
1 1 1 1 1 1 1 1 1 
1 1 1 1 1 1 1 1 1 
1 1 1 1 1 1 1 1 1 
1 1 1 1 1 1 1 1 1 
1 1 1 1 1 1 1 1 1 
1 1 1 1 1 1 1 1 1 
1 1 1 1 1 1 1 1 1 
1 1 1 1 1 1 1 1 1 
1 1 1 1 1 1 1 1 1 
1 1 1 1 1 1 1 1 1 
1 1 1 1 1 1 1 1 1 
1 1 1 1 1 1 1 1 1 
1 1 1 1 1 1 1 1 1 
1 1 1 1 1 1 1 1 1 
1 1 1 1 1 1 1 1 1 
1 1 1 1 1 1 1 1 1 
1 1 1 1 1 1 1 1 1 
1 1 1 1 1 1 1 1 1 
1 1 1 1 1 1 1 1 1 
1 1 1 1 1 1 1 1 1 
1 1 1 1 1 1 1 1 1 
1 1 1 1 1 1 1 1 1 
1 1 1 1 1 1 1 1 1 
1 1 1 1 1 1 1 1 1 
1 1 1 1 1 1 1 1 1 
1 1 1 1 1 1 1 1 1 
1 1 1 1 1 1 1 1 1 
1 1 1 1 1 1 1 1 1 
1 1 1 1 1 1 1 1 1 
1 1 1 1 1 1 1 1 1 
1 1 1 1 1 1 1 1 1 
1 1 1 1 1 1 1 1 1 
1 1 1 1 1 1 1 1 1 
1 1 1 1 1 1 1 1 1 
1 1 1 1 1 1 1 1 1 
1 1 1 1 1 1 1 1 1 
1 1 1 1 1 1 1 1 1 
1 1 1 1 1 1 1 1 1 
1 1 1 1 1 1 1 1 1 
1 1 1 1 1 1 1 1 1 
1 1 1 1 1 1 1 1 1 
1 1 1 1 1 1 1 1 1 
1 1 1 1 1 1 1 1 1 
1 1 1 1 1 1 1 1 1 
1 1 1 1 1 1 1 1 1 
1 1 1 1 1 1 1 1 1 
1 1 1 1 1 1 1 1 1 
1 1 1 1 1 1 1 1 1 
1 1 1 1 1 1 1 1 1 
1 1 1 1 1 1 1 1 1 
1 1 1 1 1 1 1 1 1 
1 1 1 1 1 1 1 1 1 
1 1 1 1 1 1 1 1 1 
1 1 1 1 1 1 1 1 1 
1 1 1 1 1 1 1 1 1 
1 1 1 1 1 1 1 1 1 
1 1 1 1 1 1 1 1 1 
1 1 1 1 1 1 1 1 1 
1 1 1 1 1 1 1 1 1 
1 1 1 1 1 1 1 1 1 
1 1 1 1 1 1 1 1 1 
1 1 1 1 1 1 1 1 1 
1 1 1 1 1 1 1 1 1 
1 1 1 1 1 1 1 1 1 
1 1 1 1 1 1 1 1 1 
1 1 1 1 1 1 1 1 1 
1 1 1 1 1 1 1 1 1 
1 1 1 1 1 1 1 1 1 
1 1 1 1 1 1 1 1 1 
1 1 1 1 1 1 1 1 1 
1 1 1 1 1 1 1 1 1 
1 1 1 1 1 1 1 1 1 
1 1 1 1 1 1 1 1 1 
1 1 1 1 1 1 1 1 1 
1 1 1 1 1 1 1 1 1 
1 1 1 1 1 1 1 1 1 
1 1 1 1 1 1 1 1 1 
1 1 1 1 1 1 1 1 1 
1 1 1 1 1 1 1 1 1 
1 1 1 1 1 1 1 1 1 
1 1 1 1 1 1 1 1 1 
1 1 1 1 1 1 1 1 1 
1 1 1 1 1 1 1 1 1 
1 1 1 1 1 1 1 1 1 
1 1 1 1 1 1 1 1 1 
1 1 1 1 1 1 1 1 1 
1 1 1 1 1 1 1 1 1 
1 1 1 1 1 1 1 1 1 
1 1 1 1 1 1 1 1 1 
1 1 1 1 1 1 1 1 1 
1 1 1 1 1 1 1 1 1 
1 1 1 1 1 1 1 1 1 
1 1 1 1 1 1 1 1 1 
1 1 1 1 1 1 1 1 1 
1 1 1 1 1 1 1 1 1 
1 1 1 1 1 1 1 1 1 
1 1 1 1 1 1 1 1 1 
1 1 1 1 1 1 1 1 1 
1 1 1 1 1 1 1 1 1 
1 1 1 1 1 1 1 1 1 
1 1 1 1 1 1 1 1 1 
1 1 1 1 1 1 1 1 1 
1 1 1 1 1 1 1 1 1 
1 1 1 1 1 1 1 1 1 
1 1 1 1 1 1 1 1 1 
1 1 1 1 1 1 1 1 1 
1 1 1 1 1 1 1 1 1 
1 1 1 1 1 1 1 1 1 
1 1 1 1 1 1 1 1 1 
1 1 1 1 1 1 1 1 1 
1 1 1 1 1 1 1 1 1 
1 1 1 1 1 1 1 1 1 
1 1 1 1 1 1 1 1 1 
1 1 1 1 1 1 1 1 1 
1 1 1 1 1 1 1 1 1 
1 1 1 1 1 1 1 1 1 
1 1 1 1 1 1 1 1 1 
1 1 1 1 1 1 1 1 1 
1 1 1 1 1 1 1 1 1 
1 1 1 1 1 1 1 1 1 
1 1 1 1 1 1 1 1 1 
1 1 1 1 1 1 1 1 1 
1 1 1 1 1 1 1 1 1 
1 1 1 1 1 1 1 1 1 
1 1 1 1 1 1 1 1 1 
1 1 1 1 1 1 1 1 1 
1 1 1 1 1 1 1 1 1 
1 1 1 1 1 1 1 1 1 
1 1 1 1 1 1 1 1 1 
1 1 1 1 1 1 1 1 1 
1 1 1 1 1 1 1 1 1 
1 1 1 1 1 1 1 1 1 
1 1 1 1 1 1 1 1 1 
1 1 1 1 1 1 1 1 1 
1 1 1 1 1 1 1 1 1 
1 1 1 1 1 1 1 1 1 
1 1 1 1 1 1 1 1 1 
1 1 1 1 1 1 1 1 1 
1 1 1 1 1 1 1 1 1 
1 1 1 1 1 1 1 1 1 
1 1 1 1 1 1 1 1 1 
1 1 1 1 1 1 1 1 1 
1 1 1 1 1 1 1 1 1 
1 1 1 1 1 1 1 1 1 
1 1 1 1 1 1 1 1 1 
1 1 1 1 1 1 1 1 1 
1 1 1 1 1 1 1 1 1 
1 1 1 1 1 1 1 1 1 
1 1 1 1 1 1 1 1 1 
1 1 1 1 1 1 1 1 1 
1 1 1 1 1 1 1 1 1 
1 1 1 1 1 1 1 1 1 
1 1 1 1 1 1 1 1 1 
1 1 1 1 1 1 1 1 1 
1 1 1 1 1 1 1 1 1 
1 1 1 1 1 1 1 1 1 
1 1 1 1 1 1 1 1 1 
1 1 1 1 1 1 1 1 1 
1 1 1 1 1 1 1 1 1 
1 1 1 1 1 1 1 1 1 
1 1 1 1 1 1 1 1 1 
1 1 1 1 1 1 1 1 1 
1 1 1 1 1 1 1 1 1 
1 1 1 1 1 1 1 1 1 
1 1 1 1 1 1 1 1 1 
1 1 1 1 1 1 1 1 1 
1 1 1 1 1 1 1 1 1 
1 1 1 1 1 1 1 1 1 
1 1 1 1 1 1 1 1 1 
1 1 1 1 1 1 1 1 1 
1 1 1 1 1 1 1 1 1 
1 1 1 1 1 1 1 1 1 
1 1 1 1 1 1 1 1 1 
1 1 1 1 1 1 1 1 1 
1 1 1 1 1 1 1 1 1 
1 1 1 1 1 1 1 1 1 
1 1 1 1 1 1 1 1 1 
1 1 1 1 1 1 1 1 1 
1 1 1 1 1 1 1 1 1 
1 1 1 1 1 1 1 1 1 
1 1 1 1 1 1 1 1 1 
1 1 1 1 1 1 1 1 1 
1 1 1 1 1 1 1 1 1 
1 1 1 1 1 1 1 1 1 
1 1 1 1 1 1 1 1 1 
1 1 1 1 1 1 1 1 1 
1 1 1 1 1 1 1 1 1 
1 1 1 1 1 1 1 1 1 
1 1 1 1 1 1 1 1 1 
1 1 1 1 1 1 1 1 1 
1 1 
NORMALS normals float
0 0 -1 0 -0.685365 -0.7282 -0.998053 0 -0.0623783 
0.685365 0 -0.7282 0 0.685365 -0.7282 -0.058621 -0.058621 -0.996558 
-0.0415586 -0.706496 -0.706496 -0.706496 -0.0415586 -0.706496 0.058722 0 -0.998274 
0.0622573 -0.996117 -0.0622573 0.998274 0 -0.058722 0 0.058722 -0.998274 
-0.684737 0.042796 -0.727533 0.684737 0.727533 -0.042796 0.727533 0.684737 -0.042796 
0 0.998274 -0.058722 -0.058621 -0.058621 -0.996558 -0.0415586 -0.706496 -0.706496 
-0.57735 -0.57735 -0.57735 0.058621 -0.058621 -0.996558 0.0415586 -0.706496 -0.706496 
0.996558 -0.058621 -0.058621 -0.058722 0 -0.998274 -0.588662 -0.554035 -0.588662 
-0.707107 0 -0.707107 0 0 -1 0.058722 0 -0.998274 
0.998274 0 -0.058722 -0.588662 0.554035 -0.588662 -0.588662 0.554035 -0.588662 
-0.042796 -0.684737 -0.727533 0.058722 0 -0.998274 0.998274 0 -0.058722 
-0.7282 0 -0.685365 0.707107 0 -0.707107 0.998274 0 -0.058722 
-0.042796 0.684737 -0.727533 -0.588662 -0.554035 -0.588662 0.058722 0 -0.998274 
0.998274 0 -0.058722 -0.058621 -0.058621 -0.996558 -0.57735 -0.57735 -0.57735 
-0.57735 -0.57735 -0.57735 0 0 -1 0.058722 0 -0.998274 
0.998274 0 -0.058722 -0.058621 -0.058621 -0.996558 -0.0415586 -0.706496 -0.706496 
-0.996558 -0.058621 -0.058621 0 -0.058722 -0.998274 0 -0.707107 -0.707107 
0 -0.058722 -0.998274 0 -0.707107 -0.707107 0.058621 -0.058621 -0.996558 
0.0415586 -0.706496 -0.706496 0.996558 -0.058621 -0.058621 -0.058621 -0.058621 -0.996558 
-0.57735 -0.57735 -0.57735 -0.706496 -0.0415586 -0.706496 0 0 -1 
0 0 -1 0.058621 0.058621 -0.996558 0.996558 0.058621 -0.058621 
-0.058621 0.058621 -0.996558 -0.996558 0.058621 -0.058621 0 0.058722 -0.998274 
0 0 -1 0.058722 0 -0.998274 0.588662 -0.554035 -0.588662 
-0.058621 0.058621 -0.996558 -0.996558 0.058621 -0.058621 0 0.058722 -0.998274 
0.058621 0.058621 -0.996558 0.706496 0.706496 -0.0415586 0.706496 0.706496 -0.0415586 
-0.058621 0.996558 -0.058621 -0.554035 0.588662 -0.588662 -0.588662 0.554035 -0.588662 
-0.058722 0 -0.998274 0 0 -1 0.554035 -0.588662 -0.588662 
0 -0.058722 -0.998274 0 -0.058722 -0.998274 0 -0.707107 -0.707107 
0 -0.058722 -0.998274 0 -0.707107 -0.707107 0.058722 0 -0.998274 
0.042796 -0.684737 -0.727533 0.998274 0 -0.058722 -0.058621 0.996558 -0.058621 
0 0.998274 -0.058722 0.058621 0.996558 -0.058621 -0.058621 0.058621 -0.996558 
-0.996558 0.058621 -0.058621 0 0.058722 -0.998274 0 0.058722 -0.998274 
0 0.058722 -0.998274 0.058621 0.058621 -0.996558 0.706496 0.706496 -0.0415586 
0.727533 0.684737 -0.042796 -0.058621 0.996558 -0.058621 0 0.998274 -0.058722 
0 0.998274 -0.058722 0 0.998274 -0.058722 0.058621 0.996558 -0.058621 
0 -0.058722 -0.998274 0 -0.707107 -0.707107 -0.684737 -0.042796 -0.727533 
0.684737 -0.042796 -0.727533 0 0 -1 -0.685365 0 -0.7282 
0.685365 0 -0.7282 0 0 -1 -0.685365 0 -0.7282 
0.565332 -0.565332 -0.600665 -0.058621 0.058621 -0.996558 -0.706496 0.0415586 -0.706496 
0.565332 -0.565332 -0.600665 0 0 -1 0.058621 -0.058621 -0.996558 
0.0415586 -0.706496 -0.706496 0.706496 -0.0415586 -0.706496 -0.0415586 0.706496 -0.706496 
-0.565332 0.565332 -0.600665 -0.565332 0.565332 -0.600665 0 0 -1 
0.565332 -0.565332 -0.600665 -0.058722 0 -0.998274 -0.707107 0 -0.707107 
0.57735 -0.57735 -0.57735 0.0415586 -0.706496 -0.706496 0.57735 -0.57735 -0.57735 
-0.707107 0 -0.707107 -0.707107 0 -0.707107 0.600665 -0.565332 -0.565332 
1 0 0 -0.706496 0.0415586 -0.706496 -0.706496 0.0415586 -0.706496 
0.707107 0.707107 0 0.7282 0.685365 0 -0.058621 0.996558 -0.058621 
0.058722 0.998274 0 -0.058621 -0.058621 -0.996558 -0.0415586 -0.706496 -0.706496 
-0.706496 -0.0415586 -0.706496 0 -0.707107 -0.707107 0 -0.707107 -0.707107 
0.0415586 -0.706496 -0.706496 0.0415586 -0.706496 -0.706496 0.996558 -0.058621 -0.058621 
-0.588662 -0.554035 -0.588662 -0.588662 -0.554035 -0.588662 1 0 0 
-0.058722 0 -0.998274 -0.042796 -0.684737 -0.727533 -0.998274 0 -0.058722 
0 -0.058722 -0.998274 0 -0.707107 -0.707107 0 0 -1 
0 -0.685365 -0.7282 0 0 -1 0 -0.685365 -0.7282 
0 0 -1 0 -0.685365 -0.7282 0 0 -1 
0 -0.685365 -0.7282 0 0 -1 0 -0.685365 -0.7282 
0 0 -1 0 -0.685365 -0.7282 0 0 -1 
0 -0.685365 -0.7282 0 0 -1 0 -0.685365 -0.7282 
0 0 -1 0 -0.685365 -0.7282 0 0 -1 
0 -0.685365 -0.7282 -0.685365 0 -0.7282 -0.565332 -0.565332 -0.600665 
1 0 0 -0.588662 0.554035 -0.588662 -0.565332 0.565332 -0.600665 
0 0 -1 0.565332 0.565332 -0.600665 0.565332 0.565332 -0.600665 
0 0.685365 -0.7282 0 0.685365 -0.7282 0 0.685365 -0.7282 
0 0.685365 -0.7282 0 0.685365 -0.7282 0 0.685365 -0.7282 
0 0.685365 -0.7282 0 0.685365 -0.7282 0 0.685365 -0.7282 
-0.565332 0.565332 -0.600665 -0.588662 0.554035 -0.588662 -0.588662 0.554035 -0.588662 
1 0 0 0 0 -1 -0.685365 0 -0.7282 
0.685365 0 -0.7282 -0.707107 0 -0.707107 -0.707107 0 -0.707107 
1 0 0 0 0 -1 -0.685365 0 -0.7282 
0.565332 -0.565332 -0.600665 -0.588662 -0.554035 -0.588662 -0.588662 -0.554035 -0.588662 
1 0 0 -0.058621 0.058621 -0.996558 -0.706496 0.0415586 -0.706496 
0.554035 -0.588662 -0.588662 0 -0.707107 -0.707107 0 -0.707107 -0.707107 
0 -0.707107 -0.707107 0 -0.707107 -0.707107 0 -0.707107 -0.707107 
0.0415586 -0.706496 -0.706496 0.0415586 -0.706496 -0.706496 0.706496 -0.0415586 -0.706496 
-0.058621 -0.058621 -0.996558 -0.0415586 -0.706496 -0.706496 -0.706496 -0.0415586 -0.706496 
-0.554035 -0.588662 -0.588662 -0.554035 -0.588662 -0.588662 1 0 0 
-0.706496 0.706496 -0.0415586 -0.7282 0.685365 0 0.600665 -0.565332 -0.565332 
-0.706496 0.0415586 -0.706496 -0.706496 0.0415586 -0.706496 0.998274 0.058722 0 
-0.998274 0.058722 0 0.554035 -0.588662 -0.588662 0.554035 -0.588662 -0.588662 
0 -0.707107 -0.707107 0 -0.707107 -0.707107 0 -0.707107 -0.707107 
0 -0.707107 -0.707107 0.0415586 -0.706496 -0.706496 0.0415586 -0.706496 -0.706496 
0.706496 -0.0415586 -0.706496 -0.57735 0.57735 -0.57735 -0.588662 0.588662 -0.554035 
0.707107 0.707107 0 0.707107 0.707107 0 -0.588662 0.588662 -0.554035 
-0.57735 0.57735 -0.57735 -0.57735 0.57735 -0.57735 0.998274 0.058722 0 
-0.058722 0.998274 0 0 1 0 0.058722 0.998274 0 
-0.57735 0.57735 -0.57735 -0.588662 0.588662 -0.554035 0.707107 0.707107 0 
0.707107 0.707107 0 -0.058722 0.998274 0 0 1 0 
0 1 0 0 1 0 0.058722 0.998274 0 
0 -0.707107 -0.707107 0 -0.998274 -0.058722 -0.684737 -0.727533 -0.042796 
0.684737 -0.727533 -0.042796 -0.706496 -0.0415586 -0.706496 -0.706496 -0.706496 -0.0415586 
-0.706496 -0.706496 -0.0415586 0.684737 -0.042796 -0.727533 0.684737 -0.727533 -0.042796 
0 -0.058722 -0.998274 0 -0.998274 -0.058722 0 -0.058722 -0.998274 
0 -0.998274 -0.058722 0.058621 -0.058621 -0.996558 0.058621 -0.996558 -0.058621 
0.996558 -0.058621 -0.058621 -0.058621 -0.058621 -0.996558 -0.706496 -0.706496 -0.0415586 
-0.706496 -0.706496 -0.0415586 -0.685365 0 -0.7282 0.685365 0 -0.7282 
0 0 -1 0 0 -1 0.058722 0 -0.998274 
0.727533 -0.684737 -0.042796 -0.058621 -0.058621 -0.996558 -0.706496 -0.706496 -0.0415586 
-0.706496 -0.706496 -0.0415586 0 0 -1 -0.685365 0 -0.7282 
0.565332 -0.565332 -0.600665 0 -0.685365 -0.7282 0 0 -1 
0 0 -1 0.684737 -0.727533 -0.042796 0 -0.058722 -0.998274 
0.058722 0 -0.998274 0.0622573 -0.996117 -0.0622573 0.998274 0 -0.058722 
-0.058621 -0.058621 -0.996558 -0.706496 -0.706496 -0.0415586 -0.706496 -0.706496 -0.0415586 
0 0 -1 0 0 -1 -0.685365 0 -0.7282 
0.685365 0 -0.7282 0 0 -1 0.058621 0.058621 -0.996558 
0.706496 0.706496 -0.0415586 0.727533 0.684737 -0.042796 -0.058621 -0.058621 -0.996558 
-0.058621 -0.996558 -0.058621 -0.706496 -0.706496 -0.0415586 0 -0.058722 -0.998274 
0 -0.998274 -0.058722 0 -0.058722 -0.998274 -0.684737 -0.727533 -0.042796 
0 0 -1 0 0 -1 0 0 -1 
0 0 -1 0 0.685365 -0.7282 -0.565332 0.565332 -0.600665 
0.565332 -0.565332 -0.600665 0.058722 0 -0.998274 0.727533 0.684737 -0.042796 
0.706496 0.706496 -0.0415586 -0.058621 -0.058621 -0.996558 -0.706496 -0.706496 -0.0415586 
-0.706496 -0.706496 -0.0415586 0 0 -1 0 0 -1 
0 0 -1 0 0 -1 0 0 -1 
0 0 -1 0 0 -1 0 0 -1 
-0.685365 0 -0.7282 0.600665 -0.565332 -0.565332 1 0 0 
-0.058621 -0.058621 -0.996558 -0.706496 -0.706496 -0.0415586 -0.57735 -0.57735 -0.57735 
0 0 -1 0 0 -1 0 0 -1 
0 0 -1 0 0 -1 0 0 -1 
0 0 -1 0 0 -1 0 0 -1 
-0.685365 0 -0.7282 0.996558 0.058621 0.058621 -0.058621 -0.058621 -0.996558 
-0.57735 -0.57735 -0.57735 -0.57735 -0.57735 -0.57735 0 0 -1 
0 0 -1 0 0 -1 0 0 -1 
0 0 -1 0 0 -1 0 0 -1 
0 0 -1 0 0 -1 0 0 -1 
-0.684737 0.042796 -0.727533 0.706496 0.706496 0.0415586 0.706496 0.706496 0.0415586 
-0.058621 -0.058621 -0.996558 -0.57735 -0.57735 -0.57735 -0.57735 -0.57735 -0.57735 
0 0 -1 0 0 -1 0 0 -1 
0 0 -1 0 0 -1 0 0 -1 
0 0 -1 0 0 -1 0 -0.685365 -0.7282 
0 -0.685365 -0.7282 0.042796 -0.684737 -0.727533 0.727533 0.684737 -0.042796 
0.684737 0.727533 -0.042796 0 0.998274 0.058722 0.058621 0.996558 0.058621 
-0.058621 -0.058621 -0.996558 -0.57735 -0.57735 -0.57735 -0.57735 -0.57735 -0.57735 
0 0 -1 0 0 -1 0 0 -1 
0 0 -1 0 0 -1 0 0 -1 
0 0 -1 0 0 -1 -0.685365 0 -0.7282 
1 0 0 -0.0415586 -0.706496 -0.706496 -0.0415586 -0.706496 -0.706496 
-0.706496 -0.0415586 -0.706496 0 -0.707107 -0.707107 0 -0.707107 -0.707107 
0 -0.707107 -0.707107 -0.554035 -0.588662 -0.588662 0 -0.685365 -0.7282 
0 -0.685365 -0.7282 0 -0.685365 -0.7282 0 -0.685365 -0.7282 
0 -0.685365 -0.7282 0 -0.685365 -0.7282 0 -0.685365 -0.7282 
0 -0.685365 -0.7282 0 -0.685365 -0.7282 -0.565332 -0.565332 -0.600665 
1 0 0 -0.7282 0 -0.685365 0.998274 0 0.058722 
-0.588662 0.554035 -0.588662 -0.998274 0 -0.058722 0.565332 0.565332 -0.600665 
0 0.685365 -0.7282 0 0.685365 -0.7282 0 0.685365 -0.7282 
0 0.685365 -0.7282 0 0.685365 -0.7282 0 0.685365 -0.7282 
0 0.685365 -0.7282 0 0.685365 -0.7282 0 0.685365 -0.7282 
-0.565332 0.565332 -0.600665 0.998274 0 0.058722 -0.707107 0 -0.707107 
-0.998274 0 -0.058722 0.685365 0 -0.7282 0 0 -1 
0 0 -1 0 0 -1 0 0 -1 
0 0 -1 0 0 -1 0 0 -1 
0 0 -1 0 0 -1 -0.685365 0 -0.7282 
0.998274 0 0.058722 -0.707107 0 -0.707107 -0.998274 0 -0.058722 
0.565332 -0.565332 -0.600665 0 -0.685365 -0.7282 0 -0.685365 -0.7282 