# vtk DataFile Version 3.0
vtk output
ASCII
DATASET POLYDATA
POINTS 4762 float
57 118 43.027 57 117.027 44 56.027 118 44 
58 118 43.027 58 117.027 44 58.973 118 44 
57 119 43.027 56.027 119 44 58 119 43.027 
58.973 119 44 57 120 43.027 56.027 120 44 
58 120 43.027 59 119.027 44 59 120 43.027 
60 120 43.027 60 119.027 44 60.973 120 44 
56 121 43.027 56 120.027 44 55.027 121 44 
57 121 43.027 58 121 43.027 59 121 43.027 
60 121 43.027 60.973 121 44 56 121.973 44 
56.027 122 44 57 122 43.027 58 122 43.027 
59 122 43.027 60 122 43.027 60.973 122 44 
57 123 43.027 56.027 123 44 58 123 43.027 
59 123 43.027 59.973 123 44 60 122.973 44 
57 123.973 44 58 123.973 44 59 123.973 44 
56 118 44.027 56 117.027 45 55.027 118 45 
57 117.027 45 58 117.027 45 58.973 118 45 
56 119 44.027 55.027 119 45 58.973 119 45 
56 120 44.027 55.027 120 45 59 119.027 45 
60 119.027 45 60.973 120 45 55.027 121 45 
60.973 121 45 56 121.973 45 56.027 122 45 
60.973 122 45 56.027 123 45 59.973 123 45 
60 122.973 45 57 123.973 45 58 123.973 45 
59 123.973 45 66 115 45.027 66 114.027 46 
65.027 115 46 66.973 115 46 65 116 45.027 
65 115.027 46 64.027 116 46 66 116 45.027 
67 115.027 46 67 116 45.027 68 116 45.027 
68 115.027 46 68.973 116 46 64 117 45.027 
64 116.027 46 63.027 117 46 65 117 45.027 
66 117 45.027 67 117 45.027 68 117 45.027 
68.973 117 46 56 118 45.973 56.027 118 46 
57 117.027 46 58 117.027 46 58.973 118 46 
63 118 45.027 63 117.027 46 62.027 118 46 
64 118 45.027 65 118 45.027 66 118 45.027 
67 118 45.027 68 118 45.027 68.973 118 46 
56 119 45.973 56.027 119 46 58.973 119 46 
62 119 45.027 62 118.027 46 61.027 119 46 
63 119 45.027 64 119 45.027 65 119 45.027 
66 119 45.027 67 119 45.027 68 119 45.027 
68.973 119 46 56 120 45.973 56.027 120 46 
59 119.027 46 60 119.027 46 61 120 45.027 
61 119.027 46 62 120 45.027 63 120 45.027 
64 120 45.027 65 120 45.027 66 120 45.027 
67 120 45.027 68 120 45.027 69 119.027 46 
69 120 45.027 70 120 45.027 70 119.027 46 
70.973 120 46 56 121 45.973 56.027 121 46 
61 121 45.027 62 121 45.027 63 121 45.027 
64 121 45.027 65 121 45.027 66 121 45.027 
67 121 45.027 68 121 45.027 69 121 45.027 
70 121 45.027 70.973 121 46 56.027 122 46 
61 122 45.027 62 122 45.027 63 122 45.027 
64 122 45.027 65 122 45.027 66 122 45.027 
66.973 122 46 67 121.973 46 68 121.973 46 
68.027 122 46 69 122 45.027 70 122 45.027 
70.973 122 46 56.027 123 46 60 123 45.027 
61 123 45.027 62 123 45.027 63 123 45.027 
64 123 45.027 65 123 45.027 65.973 123 46 
66 122.973 46 69 123 45.027 68.027 123 46 
69.973 123 46 70 122.973 46 57 123.973 46 
58 123.973 46 59 123.973 46 60 123.973 46 
61 123.973 46 62 123.973 46 63 123.973 46 
64 123.973 46 65 123.973 46 69 123.973 46 
66 113 46.027 66 112.027 47 65.027 113 47 
67 113 46.027 67 112.027 47 67.973 113 47 
66 114 46.027 65.027 114 47 66.973 114 47 
67 113.973 47 68 113.027 47 67.027 114 47 
68 114 46.027 68.973 114 47 64 115 46.027 
64 114.027 47 63.027 115 47 65 115 46.027 
65 114.027 47 67 115 46.027 67 114.027 47 
68 115 46.027 68.973 115 47 64 116 46.027 
63.027 116 47 68.973 116 47 58 117 46.027 
58 116.027 47 57.027 117 47 58.973 117 47 
62 117 46.027 62 116.027 47 61.027 117 47 
63 117 46.027 63 116.027 47 68.973 117 47 
57 117.027 47 56.027 118 47 58.973 118 47 
62 118 46.027 61.027 118 47 68.973 118 47 
56.027 119 47 59 118.027 47 59 119 46.027 
60 119 46.027 60 118.027 47 61 119 46.027 
61 118.027 47 69 118.027 47 69 119 46.027 
69.973 119 47 56.027 120 47 70 119.027 47 
70.973 120 47 56.027 121 47 70.973 121 47 
56.027 122 47 66 122 46.973 65.973 122 47 
66 121.973 47 67 121.973 47 68 121.973 47 
68.027 122 47 70.973 122 47 57 122.973 47 
57 123 46.973 58 122.973 47 58 123 46.973 
59 122.973 47 59 123 46.973 60 122.973 47 
60 123 46.973 61 122.973 47 61 123 46.973 
62 122.973 47 62 123 46.973 63 122.973 47 
63 123 46.973 64 122.973 47 64 123 46.973 
65 122.973 47 65 123 46.973 68.027 123 47 
69.973 123 47 70 122.973 47 69 123.973 47 
66 111 47.027 66 110.027 48 65.027 111 48 
66.973 111 48 63 112 47.027 63 111.027 48 
62.027 112 48 64 112 47.027 64 111.027 48 
65 112 47.027 65 111.027 48 66 112 47.027 
67 111.027 48 67 112 47.027 68 112 47.027 
68 111.027 48 68.973 112 48 62 113 47.027 
62 112.027 48 61.027 113 48 63 113 47.027 
64 113 47.027 65 113 47.027 68 113 47.027 
68.973 113 48 61 114 47.027 61 113.027 48 
60.027 114 48 62 114 47.027 63 114 47.027 
64 114 47.027 65 114 47.027 67 114 47.027 
69 114 47.027 69 113.027 48 70 114 47.027 
70 113.027 48 70.973 114 48 60 115 47.027 
60 114.027 48 59.027 115 48 61 115 47.027 
62 115 47.027 63 115 47.027 69 115 47.027 
70 115 47.027 70.973 115 48 59 116 47.027 
59 115.027 48 58.027 116 48 60 116 47.027 
61 116 47.027 62 116 47.027 63 116 47.027 
69 116 47.027 70 116 47.027 70.973 116 48 
58 117 47.973 59 117 47.027 58.027 117 48 
60 117 47.027 61 117 47.027 69 117 47.027 
70 117 47.027 70.973 117 48 57 118 47.973 
58 118 47.973 59 118 47.027 58.027 118 48 
60 118 47.027 61 118 47.027 69 118 47.027 
70 118 47.027 70.973 118 48 57 119 47.973 
58 119 47.973 58.027 119 48 70 119 47.027 
70.973 119 48 57 120 47.973 58 120 47.973 
59 119.973 48 59 120 47.973 60 119.973 48 
60 120 47.973 60.027 120 48 70.973 120 48 
57 121 47.973 58 121 47.973 59 121 47.973 
60 121 47.973 60.027 121 48 70.973 121 48 
57 122 47.973 58 122 47.973 59 122 47.973 
60 122 47.973 61 121.973 48 61 122 47.973 
62 121.973 48 62 122 47.973 63 121.973 48 
63 122 47.973 64 121.973 48 64 122 47.973 
65 121.973 48 65 122 47.973 66 121.973 48 
67 121.973 48 68 121.973 48 68.027 122 48 
70.973 122 48 68.027 123 48 69.973 123 48 
70 122.973 48 69 123.973 48 58 108 48.027 
58 107.027 49 57.027 108 49 58.973 108 49 
58 109 48.027 57.027 109 49 59 108.027 49 
59 109 48.027 59.973 109 49 58 109.973 49 
59 109.973 49 60 109.027 49 59.027 110 49 
60 110 48.027 60.973 110 49 66 110 48.027 
66 109.027 49 65.027 110 49 66.973 110 49 
60 111 48.027 59.027 111 49 61 110.027 49 
61 111 48.027 62 111 48.027 62 110.027 49 
63 111 48.027 63 110.027 49 64 111 48.027 
64 110.027 49 65 111 48.027 65 110.027 49 
67 111 48.027 67 110.027 49 68 111 48.027 
68 110.027 49 68.973 111 49 60 112 48.027 
59.027 112 49 60.973 112 49 61 111.973 49 
61.027 112 49 62 112 48.027 68.973 112 49 
58 113 48.027 58 112.027 49 57.027 113 49 
59 113 48.027 59 112.027 49 60 113 48.027 
61 112.027 49 61 113 48.027 69 112.027 49 
69 113 48.027 70 113 48.027 70 112.027 49 
70.973 113 49 58 114 48.027 57.027 114 49 
58.973 114 49 59 113.973 49 59.027 114 49 
60 114 48.027 70.973 114 49 56 115 48.027 
56 114.027 49 55.027 115 49 57 115 48.027 
57 114.027 49 58 115 48.027 59 114.027 49 
59 115 48.027 70.973 115 49 56 116 48.027 
55.027 116 49 56.973 116 49 57 115.973 49 
57.027 116 49 58 116 48.027 70.973 116 49 
55 117 48.027 55 116.027 49 54.027 117 49 
56 117 48.027 56.973 117 49 58 117 48.027 
57.027 117 49 70.973 117 49 76 117 48.027 
76 116.027 49 75.027 117 49 76.973 117 49 
55 117.973 49 56 117.973 49 58 118 48.027 
57.027 118 49 70.973 118 49 76 118 48.027 
75.027 118 49 76.973 118 49 58 119 48.027 
57.027 119 49 70.973 119 49 76 119 48.027 
75.027 119 49 77 118.027 49 77 119 48.027 
77.973 119 49 58 119.973 49 59 119.973 49 
60 120 48.027 59.027 120 49 70.973 120 49 
76 119.973 49 77 119.973 49 60 121 48.027 
59.027 121 49 70.973 121 49 60 121.973 49 
61 121.973 49 62 121.973 49 63 121.973 49 
64 121.973 49 65 121.973 49 66 121.973 49 
67 121.973 49 68 121.973 49 68.027 122 49 
70.973 122 49 68.027 123 49 70 123 48.027 
70.973 123 49 69 123.973 49 70 123.973 49 
58 107 49.027 58 106.027 50 57.027 107 50 
58.973 107 50 57 108 49.027 57 107.027 50 
56.027 108 50 59 108 49.027 59 107.027 50 
60 108 49.027 60 107.027 50 60.973 108 50 
56 109 49.027 56 108.027 50 55.027 109 50 
57 109 49.027 60 109 49.027 60.973 109 50 
62 109 49.027 62 108.027 50 61.027 109 50 
62.973 109 50 55 110 49.027 55 109.027 50 
54.027 110 50 56 110 49.027 57 110 49.027 
58 110 49.027 59 110 49.027 61 110 49.027 
61 109.027 50 62 110 49.027 63 109.027 50 
63 110 49.027 64 110 49.027 64 109.027 50 
65 110 49.027 65 109.027 50 66 109.027 50 
67 110 49.027 67 109.027 50 68 110 49.027 
68 109.027 50 68.973 110 50 54 111 49.027 
54 110.027 50 53.027 111 50 55 111 49.027 
56 111 49.027 57 111 49.027 58 111 49.027 
59 111 49.027 68.973 111 50 54 111.973 50 
54.027 112 50 55 112 49.027 56 112 49.027 
57 112 49.027 58 112 49.027 59 112 49.027 
61 112 49.027 69 111.027 50 69 112 49.027 
70 112 49.027 70 111.027 50 70.973 112 50 
55 113 49.027 54.027 113 50 56 113 49.027 
57 113 49.027 70.973 113 50 55 114 49.027 
54.027 114 50 56 114 49.027 57 114 49.027 
59 114 49.027 71 113.027 50 71 114 49.027 
72 114 49.027 72 113.027 50 72.973 114 50 
55 115 49.027 54.027 115 50 71 115 49.027 
72 115 49.027 72.973 115 50 74 115 49.027 
74 114.027 50 73.027 115 50 74.973 115 50 
55 116 49.027 54.027 116 50 57 116 49.027 
71 116 49.027 72 116 49.027 73 115.027 50 
73 116 49.027 74 116 49.027 75 115.027 50 
75 116 49.027 76 116 49.027 76 115.027 50 
76.973 116 50 54.027 117 50 57 117 49.027 
71 117 49.027 72 117 49.027 73 117 49.027 
74 117 49.027 75 117 49.027 76.973 117 50 
55 118 49.027 54.027 118 50 56 118 49.027 
57 118 49.027 71 118 49.027 72 118 49.027 
73 118 49.027 74 118 49.027 75 118 49.027 
77 117.027 50 77 118 49.027 78 118 49.027 
78 117.027 50 78.973 118 50 55 119 49.027 
54.027 119 50 56 119 49.027 57 119 49.027 
71 119 49.027 72 119 49.027 73 119 49.027 
74 119 49.027 75 119 49.027 78 119 49.027 
78.973 119 50 55 119.973 50 56 119.973 50 
56.027 120 50 57 120 49.027 58 120 49.027 
59 120 49.027 71 120 49.027 72 120 49.027 
73 120 49.027 74 120 49.027 75 120 49.027 
76 120 49.027 77 120 49.027 78 120 49.027 
78.973 120 50 57 121 49.027 56.027 121 50 
58 121 49.027 59 121 49.027 71 121 49.027 
72 121 49.027 73 121 49.027 74 121 49.027 
75 121 49.027 76 121 49.027 77 121 49.027 
77.973 121 50 78 120.973 50 57 121.973 50 
58 121.973 50 59 121.973 50 60 121.973 50 
61 121.973 50 62 121.973 50 63 121.973 50 
[...]
POINT_DATA 4762
SCALARS scalars float
LOOKUP_TABLE default
1 1 1 1 1 1 1 1 1 
1 1 1 1 1 1 1 1 1 
1 1 1 1 1 1 1 1 1 
1 1 1 1 1 1 1 1 1 
1 1 1 1 1 1 1 1 1 
1 1 1 1 1 1 1 1 1 
1 1 1 1 1 1 1 1 1 
1 1 1 1 1 1 1 1 1 
1 1 1 1 1 1 1 1 1 
1 1 1 1 1 1 1 1 1 
1 1 1 1 1 1 1 1 1 
1 1 1 1 1 1 1 1 1 
1 1 1 1 1 1 1 1 1 
1 1 1 1 1 1 1 1 1 
1 1 1 1 1 1 1 1 1 
1 1 1 1 1 1 1 1 1 
1 1 1 1 1 1 1 1 1 
1 1 1 1 1 1 1 1 1 
1 1 1 1 1 1 1 1 1 
1 1 1 1 1 1 1 1 1 
1 1 1 1 1 1 1 1 1 
1 1 1 1 1 1 1 1 1 
1 1 1 1 1 1 1 1 1 
1 1 1 1 1 1 1 1 1 
1 1 1 1 1 1 1 1 1 
1 1 1 1 1 1 1 1 1 
1 1 1 1 1 1 1 1 1 
1 1 1 1 1 1 1 1 1 
1 1 1 1 1 1 1 1 1 
1 1 1 1 1 1 1 1 1 
1 1 1 1 1 1 1 1 1 
1 1 1 1 1 1 1 1 1 
1 1 1 1 1 1 1 1 1 
1 1 1 1 1 1 1 1 1 
1 1 1 1 1 1 1 1 1 
1 1 1 1 1 1 1 1 1 
1 1 1 1 1 1 1 1 1 
1 1 1 1 1 1 1 1 1 
1 1 1 1 1 1 1 1 1 
1 1 1 1 1 1 1 1 1 
1 1 1 1 1 1 1 1 1 
1 1 1 1 1 1 1 1 1 
1 1 1 1 1 1 1 1 1 
1 1 1 1 1 1 1 1 1 
1 1 1 1 1 1 1 1 1 
1 1 1 1 1 1 1 1 1 
1 1 1 1 1 1 1 1 1 
1 1 1 1 1 1 1 1 1 
1 1 1 1 1 1 1 1 1 
1 1 1 1 1 1 1 1 1 
1 1 1 1 1 1 1 1 1 
1 1 1 1 1 1 1 1 1 
1 1 1 1 1 1 1 1 1 
1 1 1 1 1 1 1 1 1 
1 1 1 1 1 1 1 1 1 
1 1 1 1 1 1 1 1 1 
1 1 1 1 1 1 1 1 1 
1 1 1 1 1 1 1 1 1 
1 1 1 1 1 1 1 1 1 
1 1 1 1 1 1 1 1 1 
1 1 1 1 1 1 1 1 1 
1 1 1 1 1 1 1 1 1 
1 1 1 1 1 1 1 1 1 
1 1 1 1 1 1 1 1 1 
1 1 1 1 1 1 1 1 1 
1 1 1 1 1 1 1 1 1 
1 1 1 1 1 1 1 1 1 
1 1 1 1 1 1 1 1 1 
1 1 1 1 1 1 1 1 1 
1 1 1 1 1 1 1 1 1 
1 1 1 1 1 1 1 1 1 
1 1 1 1 1 1 1 1 1 
1 1 1 1 1 1 1 1 1 
1 1 1 1 1 1 1 1 1 
1 1 1 1 1 1 1 1 1 
1 1 1 1 1 1 1 1 1 
1 1 1 1 1 1 1 1 1 
1 1 1 1 1 1 1 1 1 
1 1 1 1 1 1 1 1 1 
1 1 1 1 1 1 1 1 1 
1 1 1 1 1 1 1 1 1 
1 1 1 1 1 1 1 1 1 
1 1 1 1 1 1 1 1 1 
1 1 1 1 1 1 1 1 1 
1 1 1 1 1 1 1 1 1 
1 1 1 1 1 1 1 1 1 
1 1 1 1 1 1 1 1 1 
1 1 1 1 1 1 1 1 1 
1 1 1 1 1 1 1 1 1 
1 1 1 1 1 1 1 1 1 
1 1 1 1 1 1 1 1 1 
1 1 1 1 1 1 1 1 1 
1 1 1 1 1 1 1 1 1 
1 1 1 1 1 1 1 1 1 
1 1 1 1 1 1 1 1 1 
1 1 1 1 1 1 1 1 1 
1 1 1 1 1 1 1 1 1 
1 1 1 1 1 1 1 1 1 
1 1 1 1 1 1 1 1 1 
1 1 1 1 1 1 1 1 1 
1 1 1 1 1 1 1 1 1 
1 1 1 1 1 1 1 1 1 
1 1 1 1 1 1 1 1 1 
1 1 1 1 1 1 1 1 1 
1 1 1 1 1 1 1 1 1 
1 1 1 1 1 1 1 1 1 
1 1 1 1 1 1 1 1 1 
1 1 1 1 1 1 1 1 1 
1 1 1 1 1 1 1 1 1 
1 1 1 1 1 1 1 1 1 
1 1 1 1 1 1 1 1 1 
1 1 1 1 1 1 1 1 1 
1 1 1 1 1 1 1 1 1 
1 1 1 1 1 1 1 1 1 
1 1 1 1 1 1 1 1 1 
1 1 1 1 1 1 1 1 1 
1 1 1 1 1 1 1 1 1 
1 1 1 1 1 1 1 1 1 
1 1 1 1 1 1 1 1 1 
1 1 1 1 1 1 1 1 1 
1 1 1 1 1 1 1 1 1 
1 1 1 1 1 1 1 1 1 
1 1 1 1 1 1 1 1 1 
1 1 1 1 1 1 1 1 1 
1 1 1 1 1 1 1 1 1 
1 1 1 1 1 1 1 1 1 
1 1 1 1 1 1 1 1 1 
1 1 1 1 1 1 1 1 1 
1 1 1 1 1 1 1 1 1 
1 1 1 1 1 1 1 1 1 
1 1 1 1 1 1 1 1 1 
1 1 1 1 1 1 1 1 1 
1 1 1 1 1 1 1 1 1 
1 1 1 1 1 1 1 1 1 
1 1 1 1 1 1 1 1 1 
1 1 1 1 1 1 1 1 1 
1 1 1 1 1 1 1 1 1 
1 1 1 1 1 1 1 1 1 
1 1 1 1 1 1 1 1 1 
1 1 1 1 1 1 1 1 1 
1 1 1 1 1 1 1 1 1 
1 1 1 1 1 1 1 1 1 
1 1 1 1 1 1 1 1 1 
1 1 1 1 1 1 1 1 1 
1 1 1 1 1 1 1 1 1 
1 1 1 1 1 1 1 1 1 
1 1 1 1 1 1 1 1 1 
1 1 1 1 1 1 1 1 1 
1 1 1 1 1 1 1 1 1 
1 1 1 1 1 1 1 1 1 
1 1 1 1 1 1 1 1 1 
1 1 1 1 1 1 1 1 1 
1 1 1 1 1 1 1 1 1 
1 1 1 1 1 1 1 1 1 
1 1 1 1 1 1 1 1 1 
1 1 1 1 1 1 1 1 1 
1 1 1 1 1 1 1 1 1 
1 1 1 1 1 1 1 1 1 
1 1 1 1 1 1 1 1 1 
1 1 1 1 1 1 1 1 1 
1 1 1 1 1 1 1 1 1 
1 1 1 1 1 1 1 1 1 
1 1 1 1 1 1 1 1 1 
1 1 1 1 1 1 1 1 1 
1 1 1 1 1 1 1 1 1 
1 1 1 1 1 1 1 1 1 
1 1 1 1 1 1 1 1 1 
1 1 1 1 1 1 1 1 1 
1 1 1 1 1 1 1 1 1 
1 1 1 1 1 1 1 1 1 
1 1 1 1 1 1 1 1 1 
1 1 1 1 1 1 1 1 1 
1 1 1 1 1 1 1 1 1 
1 1 1 1 1 1 1 1 1 
1 1 1 1 1 1 1 1 1 
1 1 1 1 1 1 1 1 1 
1 1 1 1 1 1 1 1 1 
1 1 1 1 1 1 1 1 1 
1 1 1 1 1 1 1 1 1 
1 1 1 1 1 1 1 1 1 
1 1 1 1 1 1 1 1 1 
1 1 1 1 1 1 1 1 1 
1 1 1 1 1 1 1 1 1 
1 1 1 1 1 1 1 1 1 
1 1 1 1 1 1 1 1 1 
1 1 1 1 1 1 1 1 1 
1 1 1 1 1 1 1 1 1 
1 1 1 1 1 1 1 1 1 
1 1 1 1 1 1 1 1 1 
1 1 1 1 1 1 1 1 1 
1 1 1 1 1 1 1 1 1 
1 1 1 1 1 1 1 1 1 
1 1 1 1 1 1 1 1 1 
1 1 1 1 1 1 1 1 1 
1 1 1 1 1 1 1 1 1 
1 1 1 1 1 1 1 1 1 
1 1 1 1 1 1 1 1 1 
1 1 1 1 1 1 1 1 1 
1 1 1 1 1 1 1 1 1 
1 1 1 1 1 1 1 1 1 
1 1 1 1 1 1 1 1 1 
1 1 1 1 1 1 1 1 1 
1 1 1 1 1 1 1 1 1 
1 1 1 1 1 1 1 1 1 
1 1 1 1 1 1 1 1 1 
1 1 1 1 1 1 1 1 1 
1 1 1 1 1 1 1 1 1 
1 1 1 1 1 1 1 1 1 
1 1 1 1 1 1 1 1 1 
1 1 1 1 1 1 1 1 1 
1 1 1 1 1 1 1 1 1 
1 1 1 1 1 1 1 1 1 
1 1 1 1 1 1 1 1 1 
1 1 1 1 1 1 1 1 1 
1 1 1 1 1 1 1 1 1 
1 1 1 1 1 1 1 1 1 
1 1 1 1 1 1 1 1 1 
1 1 1 1 1 1 1 1 1 
1 1 1 1 1 1 1 1 1 
1 1 1 1 1 1 1 1 1 
1 1 1 1 1 1 1 1 1 
1 1 1 1 1 1 1 1 1 
1 1 1 1 1 1 1 1 1 
1 1 1 1 1 1 1 1 1 
1 1 1 1 1 1 1 1 1 
1 1 1 1 1 1 1 1 1 
1 1 1 1 1 1 1 1 1 
1 1 1 1 1 1 1 1 1 
1 1 1 1 1 1 1 1 1 
1 1 1 1 1 1 1 1 1 
1 1 1 1 1 1 1 1 1 
1 1 1 1 1 1 1 1 1 
1 1 1 1 1 1 1 1 1 
1 1 1 1 1 1 1 1 1 
1 1 1 1 1 1 1 1 1 
1 1 1 1 1 1 1 1 1 
1 1 1 1 1 1 1 1 1 
1 1 1 1 1 1 1 1 1 
1 1 1 1 1 1 1 1 1 
1 1 1 1 1 1 1 1 1 
1 1 1 1 1 1 1 1 1 
1 1 1 1 1 1 1 1 1 
1 1 1 1 1 1 1 1 1 
1 1 1 1 1 1 1 1 1 
1 1 1 1 1 1 1 1 1 
1 1 1 1 1 1 1 1 1 
1 1 1 1 1 1 1 1 1 
1 1 1 1 1 1 1 1 1 
1 1 1 1 1 1 1 1 1 
1 1 1 1 1 1 1 1 1 
1 1 1 1 1 1 1 1 1 
1 1 1 1 1 1 1 1 1 
1 1 1 1 1 1 1 1 1 
1 1 1 1 1 1 1 1 1 
1 1 1 1 1 1 1 1 1 
1 1 1 1 1 1 1 1 1 
1 1 1 1 1 1 1 1 1 
1 1 1 1 1 1 1 1 1 
1 1 1 1 1 1 1 1 1 
1 1 1 1 1 1 1 1 1 
1 1 1 1 1 1 1 1 1 
1 1 1 1 1 1 1 1 1 
1 1 1 1 1 1 1 1 1 
1 1 1 1 1 1 1 1 1 
1 1 1 1 1 1 1 1 1 
1 1 1 1 1 1 1 1 1 
1 1 1 1 1 1 1 1 1 
1 1 1 1 1 1 1 1 1 
1 1 1 1 1 1 1 1 1 
1 1 1 1 1 1 1 1 1 
1 1 1 1 1 1 1 1 1 
1 1 1 1 1 1 1 1 1 
1 1 1 1 1 1 1 1 1 
1 1 1 1 1 1 1 1 1 
1 1 1 1 1 1 1 1 1 
1 1 1 1 1 1 1 1 1 
1 1 1 1 1 1 1 1 1 
1 1 1 1 1 1 1 1 1 
1 1 1 1 1 1 1 1 1 
1 1 1 1 1 1 1 1 1 
1 1 1 1 1 1 1 1 1 
1 1 1 1 1 1 1 1 1 
1 1 1 1 1 1 1 1 1 
1 1 1 1 1 1 1 1 1 
1 1 1 1 1 1 1 1 1 
1 1 1 1 1 1 1 1 1 
1 1 1 1 1 1 1 1 1 
1 1 1 1 1 1 1 1 1 
1 1 1 1 1 1 1 1 1 
1 1 1 1 1 1 1 1 1 
1 1 1 1 1 1 1 1 1 
1 1 1 1 1 1 1 1 1 
1 1 1 1 1 1 1 1 1 
1 1 1 1 1 1 1 1 1 
1 1 1 1 1 1 1 1 1 
1 1 1 1 1 1 1 1 1 
1 1 1 1 1 1 1 1 1 
1 1 1 1 1 1 1 1 1 
1 1 1 1 1 1 1 1 1 
1 1 1 1 1 1 1 1 1 
1 1 1 1 1 1 1 1 1 
1 1 1 1 1 1 1 1 1 
1 1 1 1 1 1 1 1 1 
1 1 1 1 1 1 1 1 1 
1 1 1 1 1 1 1 1 1 
1 1 1 1 1 1 1 1 1 
1 1 1 1 1 1 1 1 1 
1 1 1 1 1 1 1 1 1 
1 1 1 1 1 1 1 1 1 
1 1 1 1 1 1 1 1 1 
1 1 1 1 1 1 1 1 1 
1 1 1 1 1 1 1 1 1 
1 1 1 1 1 1 1 1 1 
1 1 1 1 1 1 1 1 1 
1 1 1 1 1 1 1 1 1 
1 1 1 1 1 1 1 1 1 
1 1 1 1 1 1 1 1 1 
1 1 1 1 1 1 1 1 1 
1 1 1 1 1 1 1 1 1 
1 1 1 1 1 1 1 1 1 
1 1 1 1 1 1 1 1 1 
1 1 1 1 1 1 1 1 1 
1 1 1 1 1 1 1 1 1 
1 1 1 1 1 1 1 1 1 
1 1 1 1 1 1 1 1 1 
1 1 1 1 1 1 1 1 1 
1 1 1 1 1 1 1 1 1 
1 1 1 1 1 1 1 1 1 
1 1 1 1 1 1 1 1 1 
1 1 1 1 1 1 1 1 1 
1 1 1 1 1 1 1 1 1 
1 1 1 1 1 1 1 1 1 
1 1 1 1 1 1 1 1 1 
1 1 1 1 1 1 1 1 1 
1 1 1 1 1 1 1 1 1 
1 1 1 1 1 1 1 1 1 
1 1 1 1 1 1 1 1 1 
1 1 1 1 1 1 1 1 1 
1 1 1 1 1 1 1 1 1 
1 1 1 1 1 1 1 1 1 
1 1 1 1 1 1 1 1 1 
1 1 1 1 1 1 1 1 1 
1 1 1 1 1 1 1 1 1 
1 1 1 1 1 1 1 1 1 
1 1 1 1 1 1 1 1 1 
1 1 1 1 1 1 1 1 1 
1 1 1 1 1 1 1 1 1 
1 1 1 1 1 1 1 1 1 
1 1 1 1 1 1 1 1 1 
1 1 1 1 1 1 1 1 1 
1 1 1 1 1 1 1 1 1 
1 1 1 1 1 1 1 1 1 
1 1 1 1 1 1 1 1 1 
1 1 1 1 1 1 1 1 1 
1 1 1 1 1 1 1 1 1 
1 1 1 1 1 1 1 1 1 
1 1 1 1 1 1 1 1 1 
1 1 1 1 1 1 1 1 1 
1 1 1 1 1 1 1 1 1 
1 1 1 1 1 1 1 1 1 
1 1 1 1 1 1 1 1 1 
1 1 1 1 1 1 1 1 1 
1 1 1 1 1 1 1 1 1 
1 1 1 1 1 1 1 1 1 
1 1 1 1 1 1 1 1 1 
1 1 1 1 1 1 1 1 1 
1 1 1 1 1 1 1 1 1 
1 1 1 1 1 1 1 1 1 
1 1 1 1 1 1 1 1 1 
1 1 1 1 1 1 1 1 1 
1 1 1 1 1 1 1 1 1 
1 1 1 1 1 1 1 1 1 
1 1 1 1 1 1 1 1 1 
1 1 1 1 1 1 1 1 1 
1 1 1 1 1 1 1 1 1 
1 1 1 1 1 1 1 1 1 
1 1 1 1 1 1 1 1 1 
1 1 1 1 1 1 1 1 1 
1 1 1 1 1 1 1 1 1 
1 1 1 1 1 1 1 1 1 
1 1 1 1 1 1 1 1 1 
1 1 1 1 1 1 1 1 1 
1 1 1 1 1 1 1 1 1 
1 1 1 1 1 1 1 1 1 
1 1 1 1 1 1 1 1 1 
1 1 1 1 1 1 1 1 1 
1 1 1 1 1 1 1 1 1 
1 1 1 1 1 1 1 1 1 
1 1 1 1 1 1 1 1 1 
1 1 1 1 1 1 1 1 1 
1 1 1 1 1 1 1 1 1 
1 1 1 1 1 1 1 1 1 
1 1 1 1 1 1 1 1 1 
1 1 1 1 1 1 1 1 1 
1 1 1 1 1 1 1 1 1 
1 1 1 1 1 1 1 1 1 
1 1 1 1 1 1 1 1 1 
1 1 1 1 1 1 1 1 1 
1 1 1 1 1 1 1 1 1 
1 1 1 1 1 1 1 1 1 
1 1 1 1 1 1 1 1 1 
1 1 1 1 1 1 1 1 1 
1 1 1 1 1 1 1 1 1 
1 1 1 1 1 1 1 1 1 
1 1 1 1 1 1 1 1 1 
1 1 1 1 1 1 1 1 1 
1 1 1 1 1 1 1 1 1 
1 1 1 1 1 1 1 1 1 
1 1 1 1 1 1 1 1 1 
1 1 1 1 1 1 1 1 1 
1 1 1 1 1 1 1 1 1 
1 1 1 1 1 1 1 1 1 
1 1 1 1 1 1 1 1 1 
1 1 1 1 1 1 1 1 1 
1 1 1 1 1 1 1 1 1 
1 1 1 1 1 1 1 1 1 
1 1 1 1 1 1 1 1 1 
1 1 1 1 1 1 1 1 1 
1 1 1 1 1 1 1 1 1 
1 1 1 1 1 1 1 1 1 
1 1 1 1 1 1 1 1 1 
1 1 1 1 1 1 1 1 1 
1 1 1 1 1 1 1 1 1 
1 1 1 1 1 1 1 1 1 
1 1 1 1 1 1 1 1 1 
1 1 1 1 1 1 1 1 1 
1 1 1 1 1 1 1 1 1 
1 1 1 1 1 1 1 1 1 
1 1 1 1 1 1 1 1 1 
1 1 1 1 1 1 1 1 1 
1 1 1 1 1 1 1 1 1 
1 1 1 1 1 1 1 1 1 
1 1 1 1 1 1 1 1 1 
1 1 1 1 1 1 1 1 1 
1 1 1 1 1 1 1 1 1 
1 1 1 1 1 1 1 1 1 
1 1 1 1 1 1 1 1 1 
1 1 1 1 1 1 1 1 1 
1 1 1 1 1 1 1 1 1 
1 1 1 1 1 1 1 1 1 
1 1 1 1 1 1 1 1 1 
1 1 1 1 1 1 1 1 1 
1 1 1 1 1 1 1 1 1 
1 1 1 1 1 1 1 1 1 
1 1 1 1 1 1 1 1 1 
1 1 1 1 1 1 1 1 1 
1 1 1 1 1 1 1 1 1 
1 1 1 1 1 1 1 1 1 
1 1 1 1 1 1 1 1 1 
1 1 1 1 1 1 1 1 1 
1 1 1 1 1 1 1 1 1 
1 1 1 1 1 1 1 1 1 
1 1 1 1 1 1 1 1 1 
1 1 1 1 1 1 1 1 1 
1 1 1 1 1 1 1 1 1 
1 1 1 1 1 1 1 1 1 
1 1 1 1 1 1 1 1 1 
1 1 1 1 1 1 1 1 1 
1 1 1 1 1 1 1 1 1 
1 1 1 1 1 1 1 1 1 
1 1 1 1 1 1 1 1 1 
1 1 1 1 1 1 1 1 1 
1 1 1 1 1 1 1 1 1 
1 1 1 1 1 1 1 1 1 
1 1 1 1 1 1 1 1 1 
1 1 1 1 1 1 1 1 1 
1 1 1 1 1 1 1 1 1 
1 1 1 1 1 1 1 1 1 
1 1 1 1 1 1 1 1 1 
1 1 1 1 1 1 1 1 1 
1 1 1 1 1 1 1 1 1 
1 1 1 1 1 1 1 1 1 
1 1 1 1 1 1 1 1 1 
1 1 1 1 1 1 1 1 1 
1 1 1 1 1 1 1 1 1 
1 1 1 1 1 1 1 1 1 
1 1 1 1 1 1 1 1 1 
1 1 1 1 1 1 1 1 1 
1 1 1 1 1 1 1 1 1 
1 1 1 1 1 1 1 1 1 
1 1 1 1 1 1 1 1 1 
1 1 1 1 1 1 1 1 1 
1 1 1 1 1 1 1 1 1 
1 1 1 1 1 1 1 1 1 
1 1 1 1 1 1 1 1 1 
1 1 1 1 1 1 1 1 1 
1 1 1 1 1 1 1 1 1 
1 1 1 1 1 1 1 1 1 
1 1 1 1 1 1 1 1 1 
1 1 1 1 1 1 1 1 1 
1 1 1 1 1 1 1 1 1 
1 1 1 1 1 1 1 1 1 
1 1 1 1 1 1 1 1 1 
1 1 1 1 1 1 1 1 1 
1 1 1 1 1 1 1 1 1 
1 1 1 1 1 1 1 1 1 
1 1 1 1 1 1 1 1 1 
1 1 1 1 1 1 1 1 1 
1 1 1 1 1 1 1 1 1 
1 1 1 1 1 1 1 1 1 
1 1 1 1 1 1 1 1 1 
1 1 1 1 1 1 1 1 1 
1 1 1 1 1 1 1 1 1 
1 1 1 1 1 1 1 1 1 
1 1 1 1 1 1 1 1 1 
1 1 1 1 1 1 1 1 1 
1 1 1 1 1 1 1 1 1 
1 1 1 1 1 1 1 1 1 
1 1 1 1 1 1 1 1 1 
1 1 1 1 1 1 1 1 1 
1 1 1 1 1 1 1 1 1 
1 1 1 1 1 1 1 1 1 
1 1 1 1 1 1 1 1 1 
1 1 1 1 1 1 1 1 1 
1 1 1 1 1 1 1 1 1 
1 1 1 1 1 1 1 1 1 
1 1 1 1 1 1 1 1 1 
1 1 1 1 1 1 1 1 1 
1 1 1 1 1 1 1 1 1 
1 1 1 1 1 1 1 1 1 
1 1 1 1 1 1 1 1 1 
1 1 1 1 1 1 1 1 1 
1 1 1 1 1 1 1 1 1 
1 1 1 1 1 1 1 1 1 
1 1 1 1 1 1 1 1 1 
1 1 1 1 1 1 1 1 1 
1 1 1 1 1 1 1 1 1 
1 1 1 1 1 1 1 1 1 
1 1 1 1 1 1 1 1 1 
1 
NORMALS normals float
-0.0270073 -0.0270073 -0.99927 -0.0270073 -0.99927 -0.0270073 -0.706978 -0.0191075 -0.706978 
0.0270073 -0.0270073 -0.99927 0.0270073 -0.99927 -0.0270073 0.99927 -0.0270073 -0.0270073 
-0.0270172 0 -0.999635 -0.707107 0 -0.707107 0.0270172 0 -0.999635 
0.716591 -0.697224 -0.0193673 -0.0270172 0 -0.999635 -0.582551 -0.566806 -0.582551 
0 0 -1 0.697224 -0.716591 -0.0193673 0 -0.0270172 -0.999635 
0.0270073 -0.0270073 -0.99927 0.0270073 -0.99927 -0.0270073 0.99927 -0.0270073 -0.0270073 
-0.0270172 0 -0.999635 -0.582551 -0.566806 -0.582551 -0.999635 0 -0.0270172 
0 0 -1 0 0 -1 0 0 -1 
0.0270172 0 -0.999635 0.999635 0 -0.0270172 -0.716591 0.697224 -0.0193673 
-0.716591 0.697224 -0.0193673 -0.0270172 0 -0.999635 0 0 -1 
0 0 -1 0.0270073 0.0270073 -0.99927 0.99927 0.0270073 -0.0270073 
-0.0270073 0.0270073 -0.99927 -0.99927 0.0270073 -0.0270073 0 0.0270172 -0.999635 
0.0270073 0.0270073 -0.99927 0.706978 0.706978 -0.0191075 0.706978 0.706978 -0.0191075 
-0.0270073 0.99927 -0.0270073 0 0.999635 -0.0270172 0.0270073 0.99927 -0.0270073 
-0.716591 -0.0193673 -0.697224 -0.0270172 -0.999635 0 -0.999635 -0.0270172 0 
0 -1 0 0.0270172 -0.999635 0 0.999635 -0.0270172 0 
-0.716726 0 -0.697355 -1 0 0 0.716726 -0.697355 0 
-0.587894 -0.572005 -0.572005 -1 0 0 0.697355 -0.716726 0 
0.0270172 -0.999635 0 0.716591 -0.0193673 -0.697224 -0.99927 0.0270073 0.0270073 
0.716726 0 -0.697355 -0.706978 0.706978 0.0191075 -0.716726 0.697355 0 
0.716591 0.0193673 -0.697224 -0.999635 0.0270172 0 0.582551 0.582551 -0.566806 
0.582551 0.582551 -0.566806 -0.0270172 0.999635 0 0 1 0 
0.0270172 0.999635 0 0 -0.0270172 -0.999635 0 -0.707107 -0.707107 
-0.566806 -0.582551 -0.582551 0.566806 -0.582551 -0.582551 -0.0270073 -0.0270073 -0.99927 
-0.57735 -0.57735 -0.57735 -0.57735 -0.57735 -0.57735 0 0 -1 
0.566806 -0.582551 -0.582551 0 -0.0270172 -0.999635 0.0270073 -0.0270073 -0.99927 
0.0191075 -0.706978 -0.706978 0.99927 -0.0270073 -0.0270073 -0.0270073 -0.0270073 -0.99927 
-0.57735 -0.57735 -0.57735 -0.57735 -0.57735 -0.57735 0 0 -1 
0 0 -1 0 0 -1 0.0270172 0 -0.999635 
0.999635 0 -0.0270172 -0.716591 -0.0193673 0.697224 -0.716591 -0.0193673 0.697224 
-0.0270172 -0.999635 0 0.0193673 -0.716591 -0.697224 0.999635 -0.0270172 0 
-0.0270073 -0.0270073 -0.99927 -0.57735 -0.57735 -0.57735 -0.57735 -0.57735 -0.57735 
0 0 -1 0 0 -1 0 0 -1 
0 0 -1 0.0270172 0 -0.999635 0.999635 0 -0.0270172 
-0.716726 0 0.697355 -0.716726 0 0.697355 0.587894 -0.572005 -0.572005 
-0.0270073 -0.0270073 -0.99927 -0.57735 -0.57735 -0.57735 -0.57735 -0.57735 -0.57735 
0 0 -1 0 0 -1 0 0 -1 
0 0 -1 0 0 -1 0.0270172 0 -0.999635 
0.582551 -0.566806 -0.582551 -0.716726 0 0.697355 -0.716726 0 0.697355 
0.572005 -0.587894 -0.572005 0 -0.716726 -0.697355 0.697224 -0.0193673 -0.716591 
-0.566806 -0.582551 -0.582551 0 0 -1 0 0 -1 
0 0 -1 0 0 -1 0 0 -1 
0 0 -1 0 0 -1 0.566806 -0.582551 -0.582551 
0 -0.0270172 -0.999635 0.0270073 -0.0270073 -0.99927 0.0270073 -0.99927 -0.0270073 
0.99927 -0.0270073 -0.0270073 -0.706978 0.0191075 0.706978 -0.716726 0 0.697355 
0.697355 0 -0.716726 0 0 -1 0 0 -1 
0 0 -1 0 0 -1 0 0 -1 
0 0.0270172 -0.999635 0 0.0270172 -0.999635 0 0 -1 
0.0270172 0 -0.999635 0.999635 0 -0.0270172 -1 0 0 
0.697355 0 -0.716726 0 0 -1 0 0 -1 
0 0 -1 0 0 -1 0.0277564 0.0277564 -0.999229 
0.707107 0.707107 0 0.697224 0.716591 -0.0193673 -0.697224 0.716591 -0.0193673 
-0.716591 0.697224 -0.0193673 -0.0270172 0 -0.999635 0.0270073 0.0270073 -0.99927 
0.99927 0.0270073 -0.0270073 -0.99927 0.0270073 0.0270073 0.572005 0.587894 -0.572005 
0 0.0277671 -0.999614 0 0.0277671 -0.999614 0 0.0277671 -0.999614 
0 0.0277671 -0.999614 0.0277564 0.0277564 -0.999229 0.707107 0.707107 0 
0.707107 0.707107 0 0 0.0270172 -0.999635 -0.999229 0.0277564 -0.0277564 
0.697224 0.716591 -0.0193673 0.706978 0.706978 -0.0191075 -0.0270073 0.99927 0.0270073 
0 0.999635 0.0270172 0 0.999635 0.0270172 0 1 0 
0 1 0 0 1 0 0 1 0 
0 1 0 0.0270172 0.999635 0 0 0.999635 -0.0270172 
-0.0270073 -0.0270073 -0.99927 -0.0191075 -0.706978 -0.706978 -0.706978 -0.0191075 -0.706978 
0.0270172 0 -0.999635 0.0193673 -0.697224 -0.716591 0.582551 -0.566806 -0.582551 
0 -0.697355 -0.716726 -0.572005 -0.572005 -0.587894 0 0 -1 
0.0270172 0 -0.999635 0.566806 -0.582551 -0.582551 0 -0.0270172 -0.999635 
0 -0.0270172 -0.999635 0.697224 -0.0193673 -0.716591 -0.0270073 -0.0270073 -0.99927 
-0.0191075 -0.706978 -0.706978 -0.706978 -0.0191075 -0.706978 -0.566806 -0.582551 -0.582551 
-0.566806 -0.582551 -0.582551 0.566806 -0.582551 -0.582551 0 -0.0270172 -0.999635 
0.0193673 -0.697224 -0.716591 0.707107 0 -0.707107 -0.582551 -0.566806 -0.582551 
-0.582551 -0.566806 -0.582551 0.716726 0 -0.697355 0 -0.716726 -0.697355 
0 -1 0 -0.697355 -0.716726 0 0.70697 -0.0196381 -0.70697 
-0.0270073 -0.0270073 -0.99927 -0.0191075 -0.706978 -0.706978 -0.706978 -0.0191075 -0.706978 
-0.566806 -0.582551 -0.582551 -0.566806 -0.582551 -0.582551 0.716726 0 -0.697355 
-0.706978 -0.706978 0.0191075 -0.99927 -0.0270073 0.0270073 0.593235 -0.577202 -0.561168 
-0.582551 -0.566806 -0.582551 -0.582551 -0.566806 -0.582551 0.587894 -0.572005 -0.572005 
-0.999635 0 0.0270172 0.566806 -0.582551 -0.582551 0.566806 -0.582551 -0.582551 
0 -0.707107 -0.707107 0 -0.707107 -0.707107 -0.566806 -0.582551 -0.582551 
-0.566806 -0.582551 -0.582551 0.57735 -0.57735 -0.57735 0.57735 -0.57735 -0.57735 
0.57735 -0.57735 -0.57735 -0.999635 0 0.0270172 0.582551 -0.582551 -0.566806 
0.999635 -0.0270172 0 -0.999635 0 0.0270172 1 0 0 
-0.99927 0.0270073 0.0270073 0.582551 0.582551 0.566806 0.57735 0.57735 0.57735 
0.572005 0.587894 0.572005 0 1 0 -0.697355 0.716726 0 
-0.716726 0.697355 0 0.999635 0.0270172 0 -0.0191075 0.706978 0.706978 
-0.0191075 0.706978 0.706978 0 0.707107 0.707107 0 0.707107 0.707107 
0 0.707107 0.707107 0 0.707107 0.707107 0 0.707107 0.707107 
0 0.716726 0.697355 0 0.707107 0.707107 0 0.716726 0.697355 
0 0.707107 0.707107 0 0.716726 0.697355 0 0.707107 0.707107 
0 0.716726 0.697355 0 0.707107 0.707107 0 0.716726 0.697355 
0.0191075 0.706978 0.706978 0.0193673 0.716591 0.697224 -0.999614 0.0277671 0 
0.697355 0.716726 0 0.707107 0.707107 0 0 1 0 
0 -0.0270172 -0.999635 0 -0.707107 -0.707107 -0.566806 -0.582551 -0.582551 
0.566806 -0.582551 -0.582551 -0.0270073 -0.0270073 -0.99927 -0.0191075 -0.706978 -0.706978 
-0.57735 -0.57735 -0.57735 0 -0.0270172 -0.999635 0 -0.707107 -0.707107 
0 -0.0270172 -0.999635 -0.566806 -0.582551 -0.582551 0 -0.697355 -0.716726 
0.566806 -0.582551 -0.582551 0 -0.707107 -0.707107 0.0270073 -0.0270073 -0.99927 
0.0191075 -0.706978 -0.706978 0.99927 -0.0270073 -0.0270073 -0.0270073 -0.0270073 -0.99927 
-0.57735 -0.57735 -0.57735 -0.57735 -0.57735 -0.57735 0 0 -1 
0 0 -1 -0.697355 0 -0.716726 0.582551 -0.566806 -0.582551 
0.582551 -0.566806 -0.582551 -0.0270073 -0.0270073 -0.99927 -0.57735 -0.57735 -0.57735 
-0.57735 -0.57735 -0.57735 0 0 -1 0 0 -1 
0 -0.697355 -0.716726 -0.572005 -0.572005 -0.587894 0 0 -1 
0.697224 -0.0193673 -0.716591 0.566806 -0.582551 -0.582551 0.0270073 -0.0270073 -0.99927 
0.0191075 -0.706978 -0.706978 0.99927 -0.0270073 -0.0270073 -0.0270073 -0.0270073 -0.99927 
-0.57735 -0.57735 -0.57735 -0.57735 -0.57735 -0.57735 0 0 -1 
0 0 -1 -0.697355 0 -0.716726 0.697355 0 -0.716726 
0.0270172 0 -0.999635 0.999635 0 -0.0270172 -0.0270073 -0.0270073 -0.99927 
-0.57735 -0.57735 -0.57735 -0.706978 -0.0191075 -0.706978 0 0 -1 
0 0 -1 0 -0.697355 -0.716726 -0.572005 -0.572005 -0.587894 
0.697355 0 -0.716726 0.0270172 0 -0.999635 0.999635 0 -0.0270172 
-0.999614 -0.0277671 0 0.6872 0 -0.726468 -0.999635 0 -0.0270172 
0 0 -1 -0.697355 0 -0.716726 0.697355 0 -0.716726 
0.0270172 0 -0.999635 0.999635 0 -0.0270172 -0.0270073 -0.0270073 0.99927 
-0.999592 0 0.0285598 0.561168 -0.577202 -0.593235 -0.999635 0 -0.0270172 
0 -0.697355 -0.716726 -0.572005 -0.572005 -0.587894 0.572005 -0.572005 -0.587894 
0.0270172 0 -0.999635 0.999635 0 -0.0270172 -0.0270172 0 0.999635 
-0.999614 0 0.0277671 -0.999635 0.0270172 0 0.582551 -0.566806 -0.582551 
0.999635 0 -0.0270172 -0.0270172 0 0.999635 0 0 1 
-0.0193673 0.716591 0.697224 0 0.697355 0.716726 -0.697355 0.716726 0 
-0.70697 0.70697 0.0196381 -0.716726 0.697355 0 1 0 0 
-0.0270172 0 0.999635 0 0 1 0 0 1 
-0.999614 0 0.0277671 -0.999635 0.0270172 0 1 0 0 
-0.0270073 0.0270073 0.99927 0 0.0270172 0.999635 0 0.0270172 0.999635 
0 0.0270172 0.999635 -0.0193673 0.716591 0.697224 0 0.707107 0.707107 
0 0.716726 0.697355 0 0.707107 0.707107 0 0.716726 0.697355 
0 0.707107 0.707107 0 0.716726 0.697355 0 0.707107 0.707107 
0 0.716726 0.697355 0.0191075 0.706978 0.706978 0 1 0 
0 1 0 -0.697355 0.716726 0 -0.716726 0.697355 0 
0.999635 0.0270172 0 -0.999614 0.0277671 0 0.572005 0.587894 -0.572005 
0.582551 0.582551 -0.566806 0 1 0 0 -0.0270172 -0.999635 
0 -0.707107 -0.707107 -0.697224 -0.0193673 -0.716591 0.566806 -0.582551 -0.582551 
-0.0270073 0.0270073 -0.99927 -0.706978 0.0191075 -0.706978 0.582551 -0.566806 -0.582551 
0.0270172 0 -0.999635 0.582551 -0.566806 -0.582551 -0.0191075 0.706978 -0.706978 
-0.561168 0.577202 -0.593235 0.566806 -0.582551 -0.582551 -0.577202 0.561168 -0.593235 
0 -0.0270172 -0.999635 0.566806 -0.582551 -0.582551 0 -0.707107 -0.707107 
0 -0.999635 -0.0270172 -0.566806 -0.582551 -0.582551 0.566806 -0.582551 -0.582551 
-0.0270172 0 -0.999635 -0.707107 0 -0.707107 0.572005 -0.572005 -0.587894 
0 0 -1 0 -0.0270172 -0.999635 0 -0.707107 -0.707107 
0 -0.707107 -0.707107 0 -0.707107 -0.707107 0 -0.707107 -0.707107 
0 -0.707107 -0.707107 -0.566806 -0.582551 -0.582551 -0.566806 -0.582551 -0.582551 
0.566806 -0.582551 -0.582551 0.566806 -0.582551 -0.582551 0.0191075 -0.706978 -0.706978 
0.0191075 -0.706978 -0.706978 0.99927 -0.0270073 -0.0270073 0 0 -1 
-0.572005 -0.572005 -0.587894 0 0 -1 0 0 -1 
-0.0270172 0 -0.999635 -0.582551 -0.566806 -0.582551 0.587894 -0.572005 -0.572005 