# vtk DataFile Version 3.0
vtk output
ASCII
DATASET POLYDATA
POINTS 6682 float
38 143 68.0769 38 142.077 69 37.0769 143 69 
39 143 68.0769 39 142.077 69 40 143 68.0769 
40 142.077 69 41 143 68.0769 41 142.077 69 
42 143 68.0769 42 142.077 69 42.9231 143 69 
38 144 68.0769 37.0769 144 69 38.9231 144 69 
39 143.923 69 40 143.923 69 41 143.923 69 
42 143.923 69 36 145 68.0769 36 144.077 69 
35.0769 145 69 37 145 68.0769 37 144.077 69 
38 145 68.0769 38.9231 145 69 36 146 68.0769 
35.0769 146 69 36.9231 146 69 37 145.923 69 
38 145.923 69 35 147 68.0769 35 146.077 69 
34.0769 147 69 36 147 68.0769 36.9231 147 69 
34 148 68.0769 34 147.077 69 33.0769 148 69 
35 147.923 69 34.9231 148 69 36 147.923 69 
34 149 68.0769 33.0769 149 69 34.9231 149 69 
34 150 68.0769 33.0769 150 69 34.9231 150 69 
34 151 68.0769 33.0769 151 69 34.9231 151 69 
34 152 68.0769 33.0769 152 69 34.9231 152 69 
34 153 68.0769 33.0769 153 69 34.9231 153 69 
34 154 68.0769 33.0769 154 69 34.9231 154 69 
34 155 68.0769 33.0769 155 69 34.9231 155 69 
34 156 68.0769 33.0769 156 69 34.9231 156 69 
34 157 68.0769 33.0769 157 69 34.9231 157 69 
34 158 68.0769 33.0769 158 69 34.9231 158 69 
34 159 68.0769 33.0769 159 69 34.9231 159 69 
34 160 68.0769 33.0769 160 69 34.9231 160 69 
34 161 68.0769 33.0769 161 69 34.9231 161 69 
34 162 68.0769 33.0769 162 69 34.9231 162 69 
34 163 68.0769 33.0769 163 69 34.9231 163 69 
34 164 68.0769 33.0769 164 69 34.9231 164 69 
34 165 68.0769 33.0769 165 69 34.9231 165 69 
34 166 68.0769 33.0769 166 69 34.9231 166 69 
34 166.923 69 35 169 68.0769 35 168.077 69 
34.0769 169 69 36 169 68.0769 36 168.077 69 
36.9231 169 69 35 169.923 69 35.0769 170 69 
36 170 68.0769 36.9231 170 69 36 170.923 69 
37 170.077 69 36.0769 171 69 37 171 68.0769 
38 171 68.0769 38 170.077 69 38.9231 171 69 
37 171.923 69 37.0769 172 69 38 172 68.0769 
38.9231 172 69 38 172.923 69 38 141 69.0769 
38 140.077 70 37.0769 141 70 38.9231 141 70 
37 142 69.0769 37 141.077 70 36.0769 142 70 
38 142 69.0769 39 141.077 70 39 142 69.0769 
40 142 69.0769 40 141.077 70 41 142 69.0769 
41 141.077 70 42 142 69.0769 42 141.077 70 
42.9231 142 70 36 143 69.0769 36 142.077 70 
35.0769 143 70 37 143 69.0769 42.9231 143 70 
35 144 69.0769 35 143.077 70 34.0769 144 70 
36 144 69.0769 37 144 69.0769 39 144 69.0769 
40 144 69.0769 41 144 69.0769 42 144 69.0769 
43 143.077 70 43 144 69.0769 44 144 69.0769 
44 143.077 70 44.9231 144 70 35 145 69.0769 
34.0769 145 70 39 145 69.0769 40 145 69.0769 
41 145 69.0769 42 145 69.0769 43 145 69.0769 
44 145 69.0769 44.9231 145 70 46 145 69.0769 
46 144.077 70 45.0769 145 70 46.9231 145 70 
35 146 69.0769 34.0769 146 70 37 146 69.0769 
38 146 69.0769 39 146 69.0769 40 146 69.0769 
41 146 69.0769 42 146 69.0769 43 146 69.0769 
44 146 69.0769 45 145.077 70 45 146 69.0769 
46 146 69.0769 47 145.077 70 47 146 69.0769 
48 146 69.0769 48 145.077 70 49 146 69.0769 
49 145.077 70 50 146 69.0769 50 145.077 70 
50.9231 146 70 34 147 69.0769 34 146.077 70 
33.0769 147 70 37 147 69.0769 38 147 69.0769 
39 147 69.0769 40 147 69.0769 41 147 69.0769 
42 147 69.0769 43 147 69.0769 44 147 69.0769 
45 147 69.0769 46 147 69.0769 47 147 69.0769 
48 147 69.0769 49 147 69.0769 50 147 69.0769 
50.9231 147 70 33 148 69.0769 33 147.077 70 
32.0769 148 70 35 148 69.0769 36 148 69.0769 
37 148 69.0769 38 148 69.0769 39 148 69.0769 
40 148 69.0769 41 148 69.0769 42 148 69.0769 
43 148 69.0769 44 148 69.0769 45 148 69.0769 
46 148 69.0769 47 148 69.0769 48 148 69.0769 
49 148 69.0769 50 148 69.0769 51 147.077 70 
51 148 69.0769 52 148 69.0769 52 147.077 70 
52.9231 148 70 33 149 69.0769 32.0769 149 70 
35 149 69.0769 36 149 69.0769 37 149 69.0769 
38 149 69.0769 39 149 69.0769 40 149 69.0769 
41 149 69.0769 42 149 69.0769 43 149 69.0769 
44 149 69.0769 45 149 69.0769 46 149 69.0769 
47 149 69.0769 48 149 69.0769 49 149 69.0769 
50 149 69.0769 51 149 69.0769 52 149 69.0769 
52.9231 149 70 33 150 69.0769 32.0769 150 70 
35 150 69.0769 36 150 69.0769 37 150 69.0769 
38 150 69.0769 39 150 69.0769 40 150 69.0769 
41 150 69.0769 42 150 69.0769 43 150 69.0769 
44 150 69.0769 45 150 69.0769 46 150 69.0769 
47 150 69.0769 48 150 69.0769 49 150 69.0769 
50 150 69.0769 51 150 69.0769 52 150 69.0769 
53 149.077 70 53 150 69.0769 54 150 69.0769 
54 149.077 70 54.9231 150 70 33 151 69.0769 
32.0769 151 70 35 151 69.0769 36 151 69.0769 
37 151 69.0769 38 151 69.0769 39 151 69.0769 
40 151 69.0769 41 151 69.0769 42 151 69.0769 
43 151 69.0769 44 151 69.0769 45 151 69.0769 
46 151 69.0769 47 151 69.0769 48 151 69.0769 
49 151 69.0769 50 151 69.0769 51 151 69.0769 
52 151 69.0769 53 151 69.0769 54 151 69.0769 
54.9231 151 70 33 152 69.0769 32.0769 152 70 
35 152 69.0769 36 152 69.0769 37 152 69.0769 
38 152 69.0769 39 152 69.0769 40 152 69.0769 
41 152 69.0769 42 152 69.0769 43 152 69.0769 
44 152 69.0769 45 152 69.0769 46 152 69.0769 
47 152 69.0769 48 152 69.0769 49 152 69.0769 
50 152 69.0769 51 152 69.0769 52 152 69.0769 
53 152 69.0769 54 152 69.0769 55 151.077 70 
55 152 69.0769 56 152 69.0769 56 151.077 70 
56.9231 152 70 33 153 69.0769 32.0769 153 70 
35 153 69.0769 36 153 69.0769 37 153 69.0769 
38 153 69.0769 39 153 69.0769 40 153 69.0769 
41 153 69.0769 42 153 69.0769 43 153 69.0769 
44 153 69.0769 45 153 69.0769 46 153 69.0769 
47 153 69.0769 48 153 69.0769 49 153 69.0769 
50 153 69.0769 51 153 69.0769 52 153 69.0769 
53 153 69.0769 54 153 69.0769 55 153 69.0769 
56 153 69.0769 56.9231 153 70 33 154 69.0769 
32.0769 154 70 35 154 69.0769 36 154 69.0769 
37 154 69.0769 38 154 69.0769 39 154 69.0769 
40 154 69.0769 41 154 69.0769 42 154 69.0769 
43 154 69.0769 44 154 69.0769 45 154 69.0769 
46 154 69.0769 47 154 69.0769 48 154 69.0769 
49 154 69.0769 50 154 69.0769 51 154 69.0769 
52 154 69.0769 53 154 69.0769 54 154 69.0769 
55 154 69.0769 56 154 69.0769 57 153.077 70 
57 154 69.0769 58 154 69.0769 58 153.077 70 
58.9231 154 70 33 155 69.0769 32.0769 155 70 
35 155 69.0769 36 155 69.0769 37 155 69.0769 
38 155 69.0769 39 155 69.0769 40 155 69.0769 
41 155 69.0769 42 155 69.0769 43 155 69.0769 
44 155 69.0769 45 155 69.0769 46 155 69.0769 
47 155 69.0769 48 155 69.0769 49 155 69.0769 
50 155 69.0769 51 155 69.0769 52 155 69.0769 
53 155 69.0769 54 155 69.0769 55 155 69.0769 
56 155 69.0769 57 155 69.0769 58 155 69.0769 
58.9231 155 70 33 156 69.0769 32.0769 156 70 
35 156 69.0769 36 156 69.0769 37 156 69.0769 
38 156 69.0769 39 156 69.0769 40 156 69.0769 
41 156 69.0769 42 156 69.0769 43 156 69.0769 
44 156 69.0769 45 156 69.0769 46 156 69.0769 
47 156 69.0769 48 156 69.0769 49 156 69.0769 
50 156 69.0769 51 156 69.0769 52 156 69.0769 
53 156 69.0769 54 156 69.0769 55 156 69.0769 
56 156 69.0769 57 156 69.0769 58 156 69.0769 
59 155.077 70 59 156 69.0769 60 156 69.0769 
60 155.077 70 60.9231 156 70 33 157 69.0769 
32.0769 157 70 35 157 69.0769 36 157 69.0769 
37 157 69.0769 38 157 69.0769 39 157 69.0769 
40 157 69.0769 41 157 69.0769 42 157 69.0769 
43 157 69.0769 44 157 69.0769 45 157 69.0769 
46 157 69.0769 47 157 69.0769 48 157 69.0769 
49 157 69.0769 50 157 69.0769 51 157 69.0769 
52 157 69.0769 53 157 69.0769 54 157 69.0769 
55 157 69.0769 56 157 69.0769 57 157 69.0769 
58 157 69.0769 59 157 69.0769 60 157 69.0769 
60.9231 157 70 33 158 69.0769 32.0769 158 70 
35 158 69.0769 36 158 69.0769 37 158 69.0769 
38 158 69.0769 39 158 69.0769 40 158 69.0769 
41 158 69.0769 42 158 69.0769 43 158 69.0769 
44 158 69.0769 45 158 69.0769 46 158 69.0769 
47 158 69.0769 48 158 69.0769 49 158 69.0769 
50 158 69.0769 51 158 69.0769 52 158 69.0769 
53 158 69.0769 54 158 69.0769 55 158 69.0769 
56 158 69.0769 57 158 69.0769 58 158 69.0769 
59 158 69.0769 60 158 69.0769 60.9231 158 70 
33 159 69.0769 32.0769 159 70 35 159 69.0769 
36 159 69.0769 37 159 69.0769 38 159 69.0769 
39 159 69.0769 40 159 69.0769 41 159 69.0769 
42 159 69.0769 43 159 69.0769 44 159 69.0769 
45 159 69.0769 46 159 69.0769 47 159 69.0769 
48 159 69.0769 49 159 69.0769 50 159 69.0769 
51 159 69.0769 52 159 69.0769 53 159 69.0769 
54 159 69.0769 55 159 69.0769 56 159 69.0769 
57 159 69.0769 58 159 69.0769 59 159 69.0769 
60 159 69.0769 60.9231 159 70 33 160 69.0769 
32.0769 160 70 35 160 69.0769 36 160 69.0769 
37 160 69.0769 38 160 69.0769 39 160 69.0769 
40 160 69.0769 41 160 69.0769 42 160 69.0769 
43 160 69.0769 44 160 69.0769 45 160 69.0769 
46 160 69.0769 47 160 69.0769 48 160 69.0769 
49 160 69.0769 50 160 69.0769 51 160 69.0769 
52 160 69.0769 53 160 69.0769 54 160 69.0769 
55 160 69.0769 56 160 69.0769 57 160 69.0769 
58 160 69.0769 59 160 69.0769 60 160 69.0769 
60.9231 160 70 33 161 69.0769 32.0769 161 70 
35 161 69.0769 36 161 69.0769 37 161 69.0769 
38 161 69.0769 39 161 69.0769 40 161 69.0769 
41 161 69.0769 42 161 69.0769 43 161 69.0769 
44 161 69.0769 45 161 69.0769 46 161 69.0769 
47 161 69.0769 48 161 69.0769 49 161 69.0769 
50 161 69.0769 51 161 69.0769 52 161 69.0769 
53 161 69.0769 54 161 69.0769 55 161 69.0769 
56 161 69.0769 57 161 69.0769 58 161 69.0769 
59 161 69.0769 59.9231 161 70 60 160.923 70 
33 162 69.0769 32.0769 162 70 35 162 69.0769 
36 162 69.0769 37 162 69.0769 38 162 69.0769 
39 162 69.0769 40 162 69.0769 41 162 69.0769 
42 162 69.0769 43 162 69.0769 44 162 69.0769 
45 162 69.0769 46 162 69.0769 47 162 69.0769 
48 162 69.0769 49 162 69.0769 50 162 69.0769 
51 162 69.0769 52 162 69.0769 53 162 69.0769 
54 162 69.0769 55 162 69.0769 56 162 69.0769 
57 162 69.0769 58 162 69.0769 58.9231 162 70 
59 161.923 70 33 163 69.0769 32.0769 163 70 
35 163 69.0769 36 163 69.0769 37 163 69.0769 
38 163 69.0769 39 163 69.0769 40 163 69.0769 
41 163 69.0769 42 163 69.0769 43 163 69.0769 
44 163 69.0769 45 163 69.0769 46 163 69.0769 
47 163 69.0769 48 163 69.0769 49 163 69.0769 
50 163 69.0769 51 163 69.0769 52 163 69.0769 
53 163 69.0769 54 163 69.0769 55 163 69.0769 
56 163 69.0769 57 163 69.0769 57.9231 163 70 
58 162.923 70 33 164 69.0769 32.0769 164 70 
35 164 69.0769 36 164 69.0769 37 164 69.0769 
38 164 69.0769 39 164 69.0769 40 164 69.0769 
[...]
POINT_DATA 6682
SCALARS scalars float
LOOKUP_TABLE default
1 1 1 1 1 1 1 1 1 
1 1 1 1 1 1 1 1 1 
1 1 1 1 1 1 1 1 1 
1 1 1 1 1 1 1 1 1 
1 1 1 1 1 1 1 1 1 
1 1 1 1 1 1 1 1 1 
1 1 1 1 1 1 1 1 1 
1 1 1 1 1 1 1 1 1 
1 1 1 1 1 1 1 1 1 
1 1 1 1 1 1 1 1 1 
1 1 1 1 1 1 1 1 1 
1 1 1 1 1 1 1 1 1 
1 1 1 1 1 1 1 1 1 
1 1 1 1 1 1 1 1 1 
1 1 1 1 1 1 1 1 1 
1 1 1 1 1 1 1 1 1 
1 1 1 1 1 1 1 1 1 
1 1 1 1 1 1 1 1 1 
1 1 1 1 1 1 1 1 1 
1 1 1 1 1 1 1 1 1 
1 1 1 1 1 1 1 1 1 
1 1 1 1 1 1 1 1 1 
1 1 1 1 1 1 1 1 1 
1 1 1 1 1 1 1 1 1 
1 1 1 1 1 1 1 1 1 
1 1 1 1 1 1 1 1 1 
1 1 1 1 1 1 1 1 1 
1 1 1 1 1 1 1 1 1 
1 1 1 1 1 1 1 1 1 
1 1 1 1 1 1 1 1 1 
1 1 1 1 1 1 1 1 1 
1 1 1 1 1 1 1 1 1 
1 1 1 1 1 1 1 1 1 
1 1 1 1 1 1 1 1 1 
1 1 1 1 1 1 1 1 1 
1 1 1 1 1 1 1 1 1 
1 1 1 1 1 1 1 1 1 
1 1 1 1 1 1 1 1 1 
1 1 1 1 1 1 1 1 1 
1 1 1 1 1 1 1 1 1 
1 1 1 1 1 1 1 1 1 
1 1 1 1 1 1 1 1 1 
1 1 1 1 1 1 1 1 1 
1 1 1 1 1 1 1 1 1 
1 1 1 1 1 1 1 1 1 
1 1 1 1 1 1 1 1 1 
1 1 1 1 1 1 1 1 1 
1 1 1 1 1 1 1 1 1 
1 1 1 1 1 1 1 1 1 
1 1 1 1 1 1 1 1 1 
1 1 1 1 1 1 1 1 1 
1 1 1 1 1 1 1 1 1 
1 1 1 1 1 1 1 1 1 
1 1 1 1 1 1 1 1 1 
1 1 1 1 1 1 1 1 1 
1 1 1 1 1 1 1 1 1 
1 1 1 1 1 1 1 1 1 
1 1 1 1 1 1 1 1 1 
1 1 1 1 1 1 1 1 1 
1 1 1 1 1 1 1 1 1 
1 1 1 1 1 1 1 1 1 
1 1 1 1 1 1 1 1 1 
1 1 1 1 1 1 1 1 1 
1 1 1 1 1 1 1 1 1 
1 1 1 1 1 1 1 1 1 
1 1 1 1 1 1 1 1 1 
1 1 1 1 1 1 1 1 1 
1 1 1 1 1 1 1 1 1 
1 1 1 1 1 1 1 1 1 
1 1 1 1 1 1 1 1 1 
1 1 1 1 1 1 1 1 1 
1 1 1 1 1 1 1 1 1 
1 1 1 1 1 1 1 1 1 
1 1 1 1 1 1 1 1 1 
1 1 1 1 1 1 1 1 1 
1 1 1 1 1 1 1 1 1 
1 1 1 1 1 1 1 1 1 
1 1 1 1 1 1 1 1 1 
1 1 1 1 1 1 1 1 1 
1 1 1 1 1 1 1 1 1 
1 1 1 1 1 1 1 1 1 
1 1 1 1 1 1 1 1 1 
1 1 1 1 1 1 1 1 1 
1 1 1 1 1 1 1 1 1 
1 1 1 1 1 1 1 1 1 
1 1 1 1 1 1 1 1 1 
1 1 1 1 1 1 1 1 1 
1 1 1 1 1 1 1 1 1 
1 1 1 1 1 1 1 1 1 
1 1 1 1 1 1 1 1 1 
1 1 1 1 1 1 1 1 1 
1 1 1 1 1 1 1 1 1 
1 1 1 1 1 1 1 1 1 
1 1 1 1 1 1 1 1 1 
1 1 1 1 1 1 1 1 1 
1 1 1 1 1 1 1 1 1 
1 1 1 1 1 1 1 1 1 
1 1 1 1 1 1 1 1 1 
1 1 1 1 1 1 1 1 1 
1 1 1 1 1 1 1 1 1 
1 1 1 1 1 1 1 1 1 
1 1 1 1 1 1 1 1 1 
1 1 1 1 1 1 1 1 1 
1 1 1 1 1 1 1 1 1 
1 1 1 1 1 1 1 1 1 
1 1 1 1 1 1 1 1 1 
1 1 1 1 1 1 1 1 1 
1 1 1 1 1 1 1 1 1 
1 1 1 1 1 1 1 1 1 
1 1 1 1 1 1 1 1 1 
1 1 1 1 1 1 1 1 1 
1 1 1 1 1 1 1 1 1 
1 1 1 1 1 1 1 1 1 
1 1 1 1 1 1 1 1 1 
1 1 1 1 1 1 1 1 1 
1 1 1 1 1 1 1 1 1 
1 1 1 1 1 1 1 1 1 
1 1 1 1 1 1 1 1 1 
1 1 1 1 1 1 1 1 1 
1 1 1 1 1 1 1 1 1 
1 1 1 1 1 1 1 1 1 
1 1 1 1 1 1 1 1 1 
1 1 1 1 1 1 1 1 1 
1 1 1 1 1 1 1 1 1 
1 1 1 1 1 1 1 1 1 
1 1 1 1 1 1 1 1 1 
1 1 1 1 1 1 1 1 1 
1 1 1 1 1 1 1 1 1 
1 1 1 1 1 1 1 1 1 
1 1 1 1 1 1 1 1 1 
1 1 1 1 1 1 1 1 1 
1 1 1 1 1 1 1 1 1 
1 1 1 1 1 1 1 1 1 
1 1 1 1 1 1 1 1 1 
1 1 1 1 1 1 1 1 1 
1 1 1 1 1 1 1 1 1 
1 1 1 1 1 1 1 1 1 
1 1 1 1 1 1 1 1 1 
1 1 1 1 1 1 1 1 1 
1 1 1 1 1 1 1 1 1 
1 1 1 1 1 1 1 1 1 
1 1 1 1 1 1 1 1 1 
1 1 1 1 1 1 1 1 1 
1 1 1 1 1 1 1 1 1 
1 1 1 1 1 1 1 1 1 
1 1 1 1 1 1 1 1 1 
1 1 1 1 1 1 1 1 1 
1 1 1 1 1 1 1 1 1 
1 1 1 1 1 1 1 1 1 
1 1 1 1 1 1 1 1 1 
1 1 1 1 1 1 1 1 1 
1 1 1 1 1 1 1 1 1 
1 1 1 1 1 1 1 1 1 
1 1 1 1 1 1 1 1 1 
1 1 1 1 1 1 1 1 1 
1 1 1 1 1 1 1 1 1 
1 1 1 1 1 1 1 1 1 
1 1 1 1 1 1 1 1 1 
1 1 1 1 1 1 1 1 1 
1 1 1 1 1 1 1 1 1 
1 1 1 1 1 1 1 1 1 
1 1 1 1 1 1 1 1 1 
1 1 1 1 1 1 1 1 1 
1 1 1 1 1 1 1 1 1 
1 1 1 1 1 1 1 1 1 
1 1 1 1 1 1 1 1 1 
1 1 1 1 1 1 1 1 1 
1 1 1 1 1 1 1 1 1 
1 1 1 1 1 1 1 1 1 
1 1 1 1 1 1 1 1 1 
1 1 1 1 1 1 1 1 1 
1 1 1 1 1 1 1 1 1 
1 1 1 1 1 1 1 1 1 
1 1 1 1 1 1 1 1 1 
1 1 1 1 1 1 1 1 1 
1 1 1 1 1 1 1 1 1 
1 1 1 1 1 1 1 1 1 
1 1 1 1 1 1 1 1 1 
1 1 1 1 1 1 1 1 1 
1 1 1 1 1 1 1 1 1 
1 1 1 1 1 1 1 1 1 
1 1 1 1 1 1 1 1 1 
1 1 1 1 1 1 1 1 1 
1 1 1 1 1 1 1 1 1 
1 1 1 1 1 1 1 1 1 
1 1 1 1 1 1 1 1 1 
1 1 1 1 1 1 1 1 1 
1 1 1 1 1 1 1 1 1 
1 1 1 1 1 1 1 1 1 
1 1 1 1 1 1 1 1 1 
1 1 1 1 1 1 1 1 1 
1 1 1 1 1 1 1 1 1 
1 1 1 1 1 1 1 1 1 
1 1 1 1 1 1 1 1 1 
1 1 1 1 1 1 1 1 1 
1 1 1 1 1 1 1 1 1 
1 1 1 1 1 1 1 1 1 
1 1 1 1 1 1 1 1 1 
1 1 1 1 1 1 1 1 1 
1 1 1 1 1 1 1 1 1 
1 1 1 1 1 1 1 1 1 
1 1 1 1 1 1 1 1 1 
1 1 1 1 1 1 1 1 1 
1 1 1 1 1 1 1 1 1 
1 1 1 1 1 1 1 1 1 
1 1 1 1 1 1 1 1 1 
1 1 1 1 1 1 1 1 1 
1 1 1 1 1 1 1 1 1 
1 1 1 1 1 1 1 1 1 
1 1 1 1 1 1 1 1 1 
1 1 1 1 1 1 1 1 1 
1 1 1 1 1 1 1 1 1 
1 1 1 1 1 1 1 1 1 
1 1 1 1 1 1 1 1 1 
1 1 1 1 1 1 1 1 1 
1 1 1 1 1 1 1 1 1 
1 1 1 1 1 1 1 1 1 
1 1 1 1 1 1 1 1 1 
1 1 1 1 1 1 1 1 1 
1 1 1 1 1 1 1 1 1 
1 1 1 1 1 1 1 1 1 
1 1 1 1 1 1 1 1 1 
1 1 1 1 1 1 1 1 1 
1 1 1 1 1 1 1 1 1 
1 1 1 1 1 1 1 1 1 
1 1 1 1 1 1 1 1 1 
1 1 1 1 1 1 1 1 1 
1 1 1 1 1 1 1 1 1 
1 1 1 1 1 1 1 1 1 
1 1 1 1 1 1 1 1 1 
1 1 1 1 1 1 1 1 1 
1 1 1 1 1 1 1 1 1 
1 1 1 1 1 1 1 1 1 
1 1 1 1 1 1 1 1 1 
1 1 1 1 1 1 1 1 1 
1 1 1 1 1 1 1 1 1 
1 1 1 1 1 1 1 1 1 
1 1 1 1 1 1 1 1 1 
1 1 1 1 1 1 1 1 1 
1 1 1 1 1 1 1 1 1 
1 1 1 1 1 1 1 1 1 
1 1 1 1 1 1 1 1 1 
1 1 1 1 1 1 1 1 1 
1 1 1 1 1 1 1 1 1 
1 1 1 1 1 1 1 1 1 
1 1 1 1 1 1 1 1 1 
1 1 1 1 1 1 1 1 1 
1 1 1 1 1 1 1 1 1 
1 1 1 1 1 1 1 1 1 
1 1 1 1 1 1 1 1 1 
1 1 1 1 1 1 1 1 1 
1 1 1 1 1 1 1 1 1 
1 1 1 1 1 1 1 1 1 
1 1 1 1 1 1 1 1 1 
1 1 1 1 1 1 1 1 1 
1 1 1 1 1 1 1 1 1 
1 1 1 1 1 1 1 1 1 
1 1 1 1 1 1 1 1 1 
1 1 1 1 1 1 1 1 1 
1 1 1 1 1 1 1 1 1 
1 1 1 1 1 1 1 1 1 
1 1 1 1 1 1 1 1 1 
1 1 1 1 1 1 1 1 1 
1 1 1 1 1 1 1 1 1 
1 1 1 1 1 1 1 1 1 
1 1 1 1 1 1 1 1 1 
1 1 1 1 1 1 1 1 1 
1 1 1 1 1 1 1 1 1 
1 1 1 1 1 1 1 1 1 
1 1 1 1 1 1 1 1 1 
1 1 1 1 1 1 1 1 1 
1 1 1 1 1 1 1 1 1 
1 1 1 1 1 1 1 1 1 
1 1 1 1 1 1 1 1 1 
1 1 1 1 1 1 1 1 1 
1 1 1 1 1 1 1 1 1 
1 1 1 1 1 1 1 1 1 
1 1 1 1 1 1 1 1 1 
1 1 1 1 1 1 1 1 1 
1 1 1 1 1 1 1 1 1 
1 1 1 1 1 1 1 1 1 
1 1 1 1 1 1 1 1 1 
1 1 1 1 1 1 1 1 1 
1 1 1 1 1 1 1 1 1 
1 1 1 1 1 1 1 1 1 
1 1 1 1 1 1 1 1 1 
1 1 1 1 1 1 1 1 1 
1 1 1 1 1 1 1 1 1 
1 1 1 1 1 1 1 1 1 
1 1 1 1 1 1 1 1 1 
1 1 1 1 1 1 1 1 1 
1 1 1 1 1 1 1 1 1 
1 1 1 1 1 1 1 1 1 
1 1 1 1 1 1 1 1 1 
1 1 1 1 1 1 1 1 1 
1 1 1 1 1 1 1 1 1 
1 1 1 1 1 1 1 1 1 
1 1 1 1 1 1 1 1 1 
1 1 1 1 1 1 1 1 1 
1 1 1 1 1 1 1 1 1 
1 1 1 1 1 1 1 1 1 
1 1 1 1 1 1 1 1 1 
1 1 1 1 1 1 1 1 1 
1 1 1 1 1 1 1 1 1 
1 1 1 1 1 1 1 1 1 
1 1 1 1 1 1 1 1 1 
1 1 1 1 1 1 1 1 1 
1 1 1 1 1 1 1 1 1 
1 1 1 1 1 1 1 1 1 
1 1 1 1 1 1 1 1 1 
1 1 1 1 1 1 1 1 1 
1 1 1 1 1 1 1 1 1 
1 1 1 1 1 1 1 1 1 
1 1 1 1 1 1 1 1 1 
1 1 1 1 1 1 1 1 1 
1 1 1 1 1 1 1 1 1 
1 1 1 1 1 1 1 1 1 
1 1 1 1 1 1 1 1 1 
1 1 1 1 1 1 1 1 1 
1 1 1 1 1 1 1 1 1 
1 1 1 1 1 1 1 1 1 
1 1 1 1 1 1 1 1 1 
1 1 1 1 1 1 1 1 1 
1 1 1 1 1 1 1 1 1 
1 1 1 1 1 1 1 1 1 
1 1 1 1 1 1 1 1 1 
1 1 1 1 1 1 1 1 1 
1 1 1 1 1 1 1 1 1 
1 1 1 1 1 1 1 1 1 
1 1 1 1 1 1 1 1 1 
1 1 1 1 1 1 1 1 1 
1 1 1 1 1 1 1 1 1 
1 1 1 1 1 1 1 1 1 
1 1 1 1 1 1 1 1 1 
1 1 1 1 1 1 1 1 1 
1 1 1 1 1 1 1 1 1 
1 1 1 1 1 1 1 1 1 
1 1 1 1 1 1 1 1 1 
1 1 1 1 1 1 1 1 1 
1 1 1 1 1 1 1 1 1 
1 1 1 1 1 1 1 1 1 
1 1 1 1 1 1 1 1 1 
1 1 1 1 1 1 1 1 1 
1 1 1 1 1 1 1 1 1 
1 1 1 1 1 1 1 1 1 
1 1 1 1 1 1 1 1 1 
1 1 1 1 1 1 1 1 1 
1 1 1 1 1 1 1 1 1 
1 1 1 1 1 1 1 1 1 
1 1 1 1 1 1 1 1 1 
1 1 1 1 1 1 1 1 1 
1 1 1 1 1 1 1 1 1 
1 1 1 1 1 1 1 1 1 
1 1 1 1 1 1 1 1 1 
1 1 1 1 1 1 1 1 1 
1 1 1 1 1 1 1 1 1 
1 1 1 1 1 1 1 1 1 
1 1 1 1 1 1 1 1 1 
1 1 1 1 1 1 1 1 1 
1 1 1 1 1 1 1 1 1 
1 1 1 1 1 1 1 1 1 
1 1 1 1 1 1 1 1 1 
1 1 1 1 1 1 1 1 1 
1 1 1 1 1 1 1 1 1 
1 1 1 1 1 1 1 1 1 
1 1 1 1 1 1 1 1 1 
1 1 1 1 1 1 1 1 1 
1 1 1 1 1 1 1 1 1 
1 1 1 1 1 1 1 1 1 
1 1 1 1 1 1 1 1 1 
1 1 1 1 1 1 1 1 1 
1 1 1 1 1 1 1 1 1 
1 1 1 1 1 1 1 1 1 
1 1 1 1 1 1 1 1 1 
1 1 1 1 1 1 1 1 1 
1 1 1 1 1 1 1 1 1 
1 1 1 1 1 1 1 1 1 
1 1 1 1 1 1 1 1 1 
1 1 1 1 1 1 1 1 1 
1 1 1 1 1 1 1 1 1 
1 1 1 1 1 1 1 1 1 
1 1 1 1 1 1 1 1 1 
1 1 1 1 1 1 1 1 1 
1 1 1 1 1 1 1 1 1 
1 1 1 1 1 1 1 1 1 
1 1 1 1 1 1 1 1 1 
1 1 1 1 1 1 1 1 1 
1 1 1 1 1 1 1 1 1 
1 1 1 1 1 1 1 1 1 
1 1 1 1 1 1 1 1 1 
1 1 1 1 1 1 1 1 1 
1 1 1 1 1 1 1 1 1 
1 1 1 1 1 1 1 1 1 
1 1 1 1 1 1 1 1 1 
1 1 1 1 1 1 1 1 1 
1 1 1 1 1 1 1 1 1 
1 1 1 1 1 1 1 1 1 
1 1 1 1 1 1 1 1 1 
1 1 1 1 1 1 1 1 1 
1 1 1 1 1 1 1 1 1 
1 1 1 1 1 1 1 1 1 
1 1 1 1 1 1 1 1 1 
1 1 1 1 1 1 1 1 1 
1 1 1 1 1 1 1 1 1 
1 1 1 1 1 1 1 1 1 
1 1 1 1 1 1 1 1 1 
1 1 1 1 1 1 1 1 1 
1 1 1 1 1 1 1 1 1 
1 1 1 1 1 1 1 1 1 
1 1 1 1 1 1 1 1 1 
1 1 1 1 1 1 1 1 1 
1 1 1 1 1 1 1 1 1 
1 1 1 1 1 1 1 1 1 
1 1 1 1 1 1 1 1 1 
1 1 1 1 1 1 1 1 1 
1 1 1 1 1 1 1 1 1 
1 1 1 1 1 1 1 1 1 
1 1 1 1 1 1 1 1 1 
1 1 1 1 1 1 1 1 1 
1 1 1 1 1 1 1 1 1 
1 1 1 1 1 1 1 1 1 
1 1 1 1 1 1 1 1 1 
1 1 1 1 1 1 1 1 1 
1 1 1 1 1 1 1 1 1 
1 1 1 1 1 1 1 1 1 
1 1 1 1 1 1 1 1 1 
1 1 1 1 1 1 1 1 1 
1 1 1 1 1 1 1 1 1 
1 1 1 1 1 1 1 1 1 
1 1 1 1 1 1 1 1 1 
1 1 1 1 1 1 1 1 1 
1 1 1 1 1 1 1 1 1 
1 1 1 1 1 1 1 1 1 
1 1 1 1 1 1 1 1 1 
1 1 1 1 1 1 1 1 1 
1 1 1 1 1 1 1 1 1 
1 1 1 1 1 1 1 1 1 
1 1 1 1 1 1 1 1 1 
1 1 1 1 1 1 1 1 1 
1 1 1 1 1 1 1 1 1 
1 1 1 1 1 1 1 1 1 
1 1 1 1 1 1 1 1 1 
1 1 1 1 1 1 1 1 1 
1 1 1 1 1 1 1 1 1 
1 1 1 1 1 1 1 1 1 
1 1 1 1 1 1 1 1 1 
1 1 1 1 1 1 1 1 1 
1 1 1 1 1 1 1 1 1 
1 1 1 1 1 1 1 1 1 
1 1 1 1 1 1 1 1 1 
1 1 1 1 1 1 1 1 1 
1 1 1 1 1 1 1 1 1 
1 1 1 1 1 1 1 1 1 
1 1 1 1 1 1 1 1 1 
1 1 1 1 1 1 1 1 1 
1 1 1 1 1 1 1 1 1 
1 1 1 1 1 1 1 1 1 
1 1 1 1 1 1 1 1 1 
1 1 1 1 1 1 1 1 1 
1 1 1 1 1 1 1 1 1 
1 1 1 1 1 1 1 1 1 
1 1 1 1 1 1 1 1 1 
1 1 1 1 1 1 1 1 1 
1 1 1 1 1 1 1 1 1 
1 1 1 1 1 1 1 1 1 
1 1 1 1 1 1 1 1 1 
1 1 1 1 1 1 1 1 1 
1 1 1 1 1 1 1 1 1 
1 1 1 1 1 1 1 1 1 
1 1 1 1 1 1 1 1 1 
1 1 1 1 1 1 1 1 1 
1 1 1 1 1 1 1 1 1 
1 1 1 1 1 1 1 1 1 
1 1 1 1 1 1 1 1 1 
1 1 1 1 1 1 1 1 1 
1 1 1 1 1 1 1 1 1 
1 1 1 1 1 1 1 1 1 
1 1 1 1 1 1 1 1 1 
1 1 1 1 1 1 1 1 1 
1 1 1 1 1 1 1 1 1 
1 1 1 1 1 1 1 1 1 
1 1 1 1 1 1 1 1 1 
1 1 1 1 1 1 1 1 1 
1 1 1 1 1 1 1 1 1 
1 1 1 1 1 1 1 1 1 
1 1 1 1 1 1 1 1 1 
1 1 1 1 1 1 1 1 1 
1 1 1 1 1 1 1 1 1 
1 1 1 1 1 1 1 1 1 
1 1 1 1 1 1 1 1 1 
1 1 1 1 1 1 1 1 1 
1 1 1 1 1 1 1 1 1 
1 1 1 1 1 1 1 1 1 
1 1 1 1 1 1 1 1 1 
1 1 1 1 1 1 1 1 1 
1 1 1 1 1 1 1 1 1 
1 1 1 1 1 1 1 1 1 
1 1 1 1 1 1 1 1 1 
1 1 1 1 1 1 1 1 1 
1 1 1 1 1 1 1 1 1 
1 1 1 1 1 1 1 1 1 
1 1 1 1 1 1 1 1 1 
1 1 1 1 1 1 1 1 1 
1 1 1 1 1 1 1 1 1 
1 1 1 1 1 1 1 1 1 
1 1 1 1 1 1 1 1 1 
1 1 1 1 1 1 1 1 1 
1 1 1 1 1 1 1 1 1 
1 1 1 1 1 1 1 1 1 
1 1 1 1 1 1 1 1 1 
1 1 1 1 1 1 1 1 1 
1 1 1 1 1 1 1 1 1 
1 1 1 1 1 1 1 1 1 
1 1 1 1 1 1 1 1 1 
1 1 1 1 1 1 1 1 1 
1 1 1 1 1 1 1 1 1 
1 1 1 1 1 1 1 1 1 
1 1 1 1 1 1 1 1 1 
1 1 1 1 1 1 1 1 1 
1 1 1 1 1 1 1 1 1 
1 1 1 1 1 1 1 1 1 
1 1 1 1 1 1 1 1 1 
1 1 1 1 1 1 1 1 1 
1 1 1 1 1 1 1 1 1 
1 1 1 1 1 1 1 1 1 
1 1 1 1 1 1 1 1 1 
1 1 1 1 1 1 1 1 1 
1 1 1 1 1 1 1 1 1 
1 1 1 1 1 1 1 1 1 
1 1 1 1 1 1 1 1 1 
1 1 1 1 1 1 1 1 1 
1 1 1 1 1 1 1 1 1 
1 1 1 1 1 1 1 1 1 
1 1 1 1 1 1 1 1 1 
1 1 1 1 1 1 1 1 1 
1 1 1 1 1 1 1 1 1 
1 1 1 1 1 1 1 1 1 
1 1 1 1 1 1 1 1 1 
1 1 1 1 1 1 1 1 1 
1 1 1 1 1 1 1 1 1 
1 1 1 1 1 1 1 1 1 
1 1 1 1 1 1 1 1 1 
1 1 1 1 1 1 1 1 1 
1 1 1 1 1 1 1 1 1 
1 1 1 1 1 1 1 1 1 
1 1 1 1 1 1 1 1 1 
1 1 1 1 1 1 1 1 1 
1 1 1 1 1 1 1 1 1 
1 1 1 1 1 1 1 1 1 
1 1 1 1 1 1 1 1 1 
1 1 1 1 1 1 1 1 1 
1 1 1 1 1 1 1 1 1 
1 1 1 1 1 1 1 1 1 
1 1 1 1 1 1 1 1 1 
1 1 1 1 1 1 1 1 1 
1 1 1 1 1 1 1 1 1 
1 1 1 1 1 1 1 1 1 
1 1 1 1 1 1 1 1 1 
1 1 1 1 1 1 1 1 1 
1 1 1 1 1 1 1 1 1 
1 1 1 1 1 1 1 1 1 
1 1 1 1 1 1 1 1 1 
1 1 1 1 1 1 1 1 1 
1 1 1 1 1 1 1 1 1 
1 1 1 1 1 1 1 1 1 
1 1 1 1 1 1 1 1 1 
1 1 1 1 1 1 1 1 1 
1 1 1 1 1 1 1 1 1 
1 1 1 1 1 1 1 1 1 
1 1 1 1 1 1 1 1 1 
1 1 1 1 1 1 1 1 1 
1 1 1 1 1 1 1 1 1 
1 1 1 1 1 1 1 1 1 
1 1 1 1 1 1 1 1 1 
1 1 1 1 1 1 1 1 1 
1 1 1 1 1 1 1 1 1 
1 1 1 1 1 1 1 1 1 
1 1 1 1 1 1 1 1 1 
1 1 1 1 1 1 1 1 1 
1 1 1 1 1 1 1 1 1 
1 1 1 1 1 1 1 1 1 
1 1 1 1 1 1 1 1 1 
1 1 1 1 1 1 1 1 1 
1 1 1 1 1 1 1 1 1 
1 1 1 1 1 1 1 1 1 
1 1 1 1 1 1 1 1 1 
1 1 1 1 1 1 1 1 1 
1 1 1 1 1 1 1 1 1 
1 1 1 1 1 1 1 1 1 
1 1 1 1 1 1 1 1 1 
1 1 1 1 1 1 1 1 1 
1 1 1 1 1 1 1 1 1 
1 1 1 1 1 1 1 1 1 
1 1 1 1 1 1 1 1 1 
1 1 1 1 1 1 1 1 1 
1 1 1 1 1 1 1 1 1 
1 1 1 1 1 1 1 1 1 
1 1 1 1 1 1 1 1 1 
1 1 1 1 1 1 1 1 1 
1 1 1 1 1 1 1 1 1 
1 1 1 1 1 1 1 1 1 
1 1 1 1 1 1 1 1 1 
1 1 1 1 1 1 1 1 1 
1 1 1 1 1 1 1 1 1 
1 1 1 1 1 1 1 1 1 
1 1 1 1 1 1 1 1 1 
1 1 1 1 1 1 1 1 1 
1 1 1 1 1 1 1 1 1 
1 1 1 1 1 1 1 1 1 
1 1 1 1 1 1 1 1 1 
1 1 1 1 1 1 1 1 1 
1 1 1 1 1 1 1 1 1 
1 1 1 1 1 1 1 1 1 
1 1 1 1 1 1 1 1 1 
1 1 1 1 1 1 1 1 1 
1 1 1 1 1 1 1 1 1 
1 1 1 1 1 1 1 1 1 
1 1 1 1 1 1 1 1 1 
1 1 1 1 1 1 1 1 1 
1 1 1 1 1 1 1 1 1 
1 1 1 1 1 1 1 1 1 
1 1 1 1 1 1 1 1 1 
1 1 1 1 1 1 1 1 1 
1 1 1 1 1 1 1 1 1 
1 1 1 1 1 1 1 1 1 
1 1 1 1 1 1 1 1 1 
1 1 1 1 1 1 1 1 1 
1 1 1 1 1 1 1 1 1 
1 1 1 1 1 1 1 1 1 
1 1 1 1 1 1 1 1 1 
1 1 1 1 1 1 1 1 1 
1 1 1 1 1 1 1 1 1 
1 1 1 1 1 1 1 1 1 
1 1 1 1 1 1 1 1 1 
1 1 1 1 1 1 1 1 1 
1 1 1 1 1 1 1 1 1 
1 1 1 1 1 1 1 1 1 
1 1 1 1 1 1 1 1 1 
1 1 1 1 1 1 1 1 1 
1 1 1 1 1 1 1 1 1 
1 1 1 1 1 1 1 1 1 
1 1 1 1 1 1 1 1 1 
1 1 1 1 1 1 1 1 1 
1 1 1 1 1 1 1 1 1 
1 1 1 1 1 1 1 1 1 
1 1 1 1 1 1 1 1 1 
1 1 1 1 1 1 1 1 1 
1 1 1 1 1 1 1 1 1 
1 1 1 1 1 1 1 1 1 
1 1 1 1 1 1 1 1 1 
1 1 1 1 1 1 1 1 1 
1 1 1 1 1 1 1 1 1 
1 1 1 1 1 1 1 1 1 
1 1 1 1 1 1 1 1 1 
1 1 1 1 1 1 1 1 1 
1 1 1 1 1 1 1 1 1 
1 1 1 1 1 1 1 1 1 
1 1 1 1 1 1 1 1 1 
1 1 1 1 1 1 1 1 1 
1 1 1 1 1 1 1 1 1 
1 1 1 1 1 1 1 1 1 
1 1 1 1 1 1 1 1 1 
1 1 1 1 1 1 1 1 1 
1 1 1 1 1 1 1 1 1 
1 1 1 1 1 1 1 1 1 
1 1 1 1 1 1 1 1 1 
1 1 1 1 1 1 1 1 1 
1 1 1 1 1 1 1 1 1 
1 1 1 1 1 1 1 1 1 
1 1 1 1 1 1 1 1 1 
1 1 1 1 1 1 1 1 1 
1 1 1 1 1 1 1 1 1 
1 1 1 1 1 1 1 1 1 
1 1 1 1 1 1 1 1 1 
1 1 1 1 1 1 1 1 1 
1 1 1 1 1 1 1 1 1 
1 1 1 1 1 1 1 1 1 
1 1 1 1 1 1 1 1 1 
1 1 1 1 1 1 1 1 1 
1 1 1 1 1 1 1 1 1 
1 1 1 1 1 1 1 1 1 
1 1 1 1 1 1 1 1 1 
1 1 1 1 1 1 1 1 1 
1 1 1 1 1 1 1 1 1 
1 1 1 1 1 1 1 1 1 
1 1 1 1 1 1 1 1 1 
1 1 1 1 1 1 1 1 1 
1 1 1 1 1 1 1 1 1 
1 1 1 1 1 1 1 1 1 
1 1 1 1 1 1 1 1 1 
1 1 1 1 1 1 1 1 1 
1 1 1 1 1 1 1 1 1 
1 1 1 1 1 1 1 1 1 
1 1 1 1 1 1 1 1 1 
1 1 1 1 1 1 1 1 1 
1 1 1 1 1 1 1 1 1 
1 1 1 1 1 1 1 1 1 
1 1 1 1 1 1 1 1 1 
1 1 1 1 1 1 1 1 1 
1 1 1 1 1 1 1 1 1 
1 1 1 1 1 1 1 1 1 
1 1 1 1 1 1 1 1 1 
1 1 1 1 1 1 1 1 1 
1 1 1 1 1 1 1 1 1 
1 1 1 1 1 1 1 1 1 
1 1 1 1 1 1 1 1 1 
1 1 1 1 1 1 1 1 1 
1 1 1 1 1 1 1 1 1 
1 1 1 1 1 1 1 1 1 
1 1 1 1 1 1 1 1 1 
1 1 1 1 1 1 1 1 1 
1 1 1 1 1 1 1 1 1 
1 1 1 1 1 1 1 1 1 
1 1 1 1 1 1 1 1 1 
1 1 1 1 1 1 1 1 1 
1 1 1 1 1 1 1 1 1 
1 1 1 1 1 1 1 1 1 
1 1 1 1 1 1 1 1 1 
1 1 1 1 1 1 1 1 1 
1 1 1 1 1 1 1 1 1 
1 1 1 1 1 1 1 1 1 
1 1 1 1 1 1 1 1 1 
1 1 1 1 1 1 1 1 1 
1 1 1 1 1 1 1 1 1 
1 1 1 1 1 1 1 1 1 
1 1 1 1 1 1 1 1 1 
1 1 1 1 1 1 1 1 1 
1 1 1 1 1 1 1 1 1 
1 1 1 1 1 1 1 1 1 
1 1 1 1 1 1 1 1 1 
1 1 1 1 1 1 1 1 1 
1 1 1 1 1 1 1 1 1 
1 1 1 1 1 1 1 1 1 
1 1 1 1 1 1 1 1 1 
1 1 1 1 1 1 1 1 1 
1 1 1 1 1 1 1 1 1 
1 1 1 1 1 1 1 1 1 
1 1 1 1 1 1 1 1 1 
1 1 1 1 1 1 1 1 1 
1 1 1 1 1 1 1 1 1 
1 1 1 1 1 1 1 1 1 
1 1 1 1 1 1 1 1 1 
1 1 1 1 
NORMALS normals float
-0.0764719 -0.0764719 -0.994135 -0.0543125 -0.706063 -0.706063 -0.706063 -0.0543125 -0.706063 
0 0 -1 0 -0.67828 -0.734803 0 0 -1 
0 -0.67828 -0.734803 0 0 -1 0 -0.67828 -0.734803 
0.0766965 0 -0.997054 0.0564333 -0.677199 -0.733632 0.997054 0 -0.0766965 
0 0 -1 -0.561336 -0.561336 -0.608114 0.561336 0.561336 -0.608114 
0.561336 0.561336 -0.608114 0 0.67828 -0.734803 0 0.67828 -0.734803 
0.0564333 0.677199 -0.733632 -0.0764719 -0.0764719 -0.994135 -0.0543125 -0.706063 -0.706063 
-0.706063 -0.0543125 -0.706063 0 0 -1 -0.561336 -0.561336 -0.608114 
0.0764719 0.0764719 -0.994135 0.706063 0.0543125 -0.706063 0 0 -1 
-0.561336 -0.561336 -0.608114 0.561336 0.561336 -0.608114 0.561336 0.561336 -0.608114 
0.0543125 0.706063 -0.706063 -0.0766965 0 -0.997054 -0.592134 -0.546585 -0.592134 
-0.592134 -0.546585 -0.592134 0.0764719 0.0764719 -0.994135 0.706063 0.0543125 -0.706063 
0 -0.0766965 -0.997054 -0.546585 -0.592134 -0.592134 -0.677199 -0.0564333 -0.733632 
0.528017 0.576018 -0.62402 0.576018 0.528017 -0.62402 0.0543125 0.706063 -0.706063 
0 0 -1 -0.67828 0 -0.734803 0.67828 0 -0.734803 
0 0 -1 -0.67828 0 -0.734803 0.67828 0 -0.734803 
0 0 -1 -0.67828 0 -0.734803 0.67828 0 -0.734803 
0 0 -1 -0.67828 0 -0.734803 0.67828 0 -0.734803 
0 0 -1 -0.67828 0 -0.734803 0.67828 0 -0.734803 
0 0 -1 -0.67828 0 -0.734803 0.67828 0 -0.734803 
0 0 -1 -0.67828 0 -0.734803 0.67828 0 -0.734803 
0 0 -1 -0.67828 0 -0.734803 0.67828 0 -0.734803 
0 0 -1 -0.67828 0 -0.734803 0.67828 0 -0.734803 
0 0 -1 -0.67828 0 -0.734803 0.67828 0 -0.734803 
0 0 -1 -0.67828 0 -0.734803 0.67828 0 -0.734803 
0 0 -1 -0.67828 0 -0.734803 0.67828 0 -0.734803 
0 0 -1 -0.67828 0 -0.734803 0.67828 0 -0.734803 
0 0 -1 -0.67828 0 -0.734803 0.67828 0 -0.734803 
0 0 -1 -0.67828 0 -0.734803 0.67828 0 -0.734803 
0 0 -1 -0.67828 0 -0.734803 0.67828 0 -0.734803 
0 0 -1 -0.67828 0 -0.734803 0.67828 0 -0.734803 
0 0.0766965 -0.997054 -0.677199 0.0564333 -0.733632 0.677199 0.0564333 -0.733632 
0 0.707107 -0.707107 -0.0766965 0 -0.997054 -0.0564333 -0.677199 -0.733632 
-0.997054 0 -0.0766965 0.0764719 -0.0764719 -0.994135 0.0543125 -0.706063 -0.706063 
0.706063 -0.0543125 -0.706063 -0.592134 0.546585 -0.592134 -0.546585 0.592134 -0.592134 
0 0.0766965 -0.997054 0.576018 -0.528017 -0.62402 -0.546585 0.592134 -0.592134 
0.528017 -0.576018 -0.62402 -0.592134 0.546585 -0.592134 -0.0766965 0 -0.997054 
0.0764719 -0.0764719 -0.994135 0.0543125 -0.706063 -0.706063 0.706063 -0.0543125 -0.706063 
-0.592134 0.546585 -0.592134 -0.546585 0.592134 -0.592134 0 0.0766965 -0.997054 
0.677199 0.0564333 -0.733632 0 0.707107 -0.707107 0 -0.0766965 -0.997054 
0 -0.997054 -0.0766965 -0.546585 -0.592134 -0.592134 0.546585 -0.592134 -0.592134 
-0.0764719 -0.0764719 -0.994135 -0.57735 -0.57735 -0.57735 -0.706063 -0.706063 -0.0543125 
0 -0.67828 -0.734803 0.546585 -0.592134 -0.592134 0 -0.707107 -0.707107 
0 -0.707107 -0.707107 0 -0.707107 -0.707107 0 -0.707107 -0.707107 
0 -0.707107 -0.707107 0.0543125 -0.706063 -0.706063 0.0764719 -0.994135 -0.0764719 
0.994135 -0.0764719 -0.0764719 -0.0764719 -0.0764719 -0.994135 -0.706063 -0.706063 -0.0543125 
-0.706063 -0.706063 -0.0543125 -0.67828 0 -0.734803 0.734803 -0.67828 0 
-0.0764719 -0.0764719 -0.994135 -0.706063 -0.706063 -0.0543125 -0.706063 -0.0543125 -0.706063 
0 -0.67828 -0.734803 -0.561336 -0.561336 -0.608114 0.561336 0.561336 -0.608114 
0 0.67828 -0.734803 0 0.67828 -0.734803 0 0.67828 -0.734803 
0.677199 -0.733632 -0.0564333 0 -0.0766965 -0.997054 0.0764719 -0.0764719 -0.994135 
0.0764719 -0.994135 -0.0764719 0.994135 -0.0764719 -0.0764719 -0.707107 0 -0.707107 
-0.707107 0 -0.707107 0.67828 0 -0.734803 0 0 -1 
0 0 -1 0 0 -1 0 0 -1 
0.0766965 0 -0.997054 0.0564333 -0.677199 -0.733632 0 -0.0766965 -0.997054 
0 -0.997054 -0.0766965 0 -0.707107 -0.707107 0.677199 -0.733632 -0.0564333 
-0.592134 -0.546585 -0.592134 -0.592134 -0.546585 -0.592134 0.561336 0.561336 -0.608114 
0 0.67828 -0.734803 0 0 -1 0 0 -1 
0 0 -1 0 0 -1 0 0 -1 
0 0 -1 0 -0.707107 -0.707107 0 -0.0766965 -0.997054 
0 0 -1 0.677199 -0.733632 -0.0564333 0 -0.0766965 -0.997054 
0 -0.0766965 -0.997054 0 -0.997054 -0.0766965 0 -0.0766965 -0.997054 
0 -0.997054 -0.0766965 0.0827606 -0.0827606 -0.993127 0.0766965 -0.997054 0 
0.997054 -0.0766965 0 -0.57735 -0.57735 -0.57735 -0.57735 -0.57735 -0.57735 
-0.57735 -0.57735 -0.57735 0.67828 0 -0.734803 0 0 -1 
0 0 -1 0 0 -1 0 0 -1 
0 0 -1 0 0 -1 0 0 -1 
0 0 -1 0 0 -1 0 0 -1 
0 0 -1 0 0 -1 0.0830455 0 -0.996546 
0.734803 -0.67828 0 -0.706063 -0.0543125 -0.706063 -0.57735 -0.57735 -0.57735 
-0.994135 -0.0764719 -0.0764719 0.561336 0.561336 -0.608114 0 0.67828 -0.734803 
0 0 -1 0 0 -1 0 0 -1 
0 0 -1 0 0 -1 0 0 -1 
0 0 -1 0 0 -1 0 0 -1 
0 0 -1 0 0 -1 0 0 -1 
0 0 -1 0 0 -1 0.677199 -0.733632 -0.0564333 
0 -0.0766965 -0.997054 0.0827606 -0.0827606 -0.993127 0.0766965 -0.997054 0 
0.997054 -0.0766965 0 -0.707107 0 -0.707107 -0.997054 0 -0.0766965 
0.67828 0 -0.734803 0 0 -1 0 0 -1 
0 0 -1 0 0 -1 0 0 -1 
0 0 -1 0 0 -1 0 0 -1 
0 0 -1 0 0 -1 0 0 -1 
0 0 -1 0 0 -1 0 0 -1 
0 0 -1 0 0 -1 0.0766965 0 -0.997054 
0.733632 -0.677199 -0.0564333 -0.707107 0 -0.707107 -0.997054 0 -0.0766965 
0.67828 0 -0.734803 0 0 -1 0 0 -1 
0 0 -1 0 0 -1 0 0 -1 
0 0 -1 0 0 -1 0 0 -1 
0 0 -1 0 0 -1 0 0 -1 
0 0 -1 0 0 -1 0 0 -1 
0 0 -1 0 0 -1 0 0 -1 
0.677199 -0.733632 -0.0564333 0 -0.0766965 -0.997054 0.0827606 -0.0827606 -0.993127 
0.0766965 -0.997054 0 0.997054 -0.0766965 0 -0.707107 0 -0.707107 
-0.997054 0 -0.0766965 0.67828 0 -0.734803 0 0 -1 
0 0 -1 0 0 -1 0 0 -1 
0 0 -1 0 0 -1 0 0 -1 
0 0 -1 0 0 -1 0 0 -1 
0 0 -1 0 0 -1 0 0 -1 
0 0 -1 0 0 -1 0 0 -1 
0 0 -1 0 0 -1 0.0766965 0 -0.997054 
0.733632 -0.677199 -0.0564333 -0.707107 0 -0.707107 -0.997054 0 -0.0766965 
0.67828 0 -0.734803 0 0 -1 0 0 -1 
0 0 -1 0 0 -1 0 0 -1 
0 0 -1 0 0 -1 0 0 -1 
0 0 -1 0 0 -1 0 0 -1 