# vtk DataFile Version 3.0
vtk output
ASCII
DATASET POLYDATA
POINTS 3352 float
96 191 54.0385 96 190.038 55 95.0385 191 55 
96.9615 191 55 96 192 54.0385 95.0385 192 55 
96.9615 192 55 96 192.962 55 98 193 54.0385 
98 192.038 55 97.0385 193 55 99 193 54.0385 
99 192.038 55 99.9615 193 55 98 193.962 55 
99 193.962 55 99 184 55.0385 99 183.038 56 
98.0385 184 56 100 184 55.0385 100 183.038 56 
100.962 184 56 99 185 55.0385 98.0385 185 56 
99.9615 185 56 100 184.962 56 99 185.962 56 
99 188 55.0385 99 187.038 56 98.0385 188 56 
100 188 55.0385 100 187.038 56 100.962 188 56 
98 189 55.0385 98 188.038 56 97.0385 189 56 
99 189 55.0385 100 189 55.0385 100.962 189 56 
93 190 55.0385 93 189.038 56 92.0385 190 56 
94 190 55.0385 94 189.038 56 94.9615 190 56 
97 190 55.0385 97 189.038 56 96.0385 190 56 
98 190 55.0385 99 190 55.0385 100 190 55.0385 
100.962 190 56 93 191 55.0385 92.0385 191 56 
94 191 55.0385 94.9615 191 56 96 190.038 56 
95.0385 191 56 97 191 55.0385 98 191 55.0385 
99 191 55.0385 100 191 55.0385 100.962 191 56 
93 191.962 56 94 191.962 56 95 191.038 56 
94.0385 192 56 95 192 55.0385 97 192 55.0385 
98 192 55.0385 99 192 55.0385 100 192 55.0385 
100.962 192 56 95 193 55.0385 94.0385 193 56 
96 193 55.0385 97 193 55.0385 100 193 55.0385 
100.962 193 56 95 193.962 56 96 193.962 56 
97 193.962 56 98 193.962 56 99 194 55.0385 
98.0385 194 56 100 194 55.0385 100.962 194 56 
99 195 55.0385 98.0385 195 56 99.9615 195 56 
100 194.962 56 99 195.962 56 91 151 56.0385 
91 150.038 57 90.0385 151 57 92 151 56.0385 
92 150.038 57 92.9615 151 57 91 151.962 57 
91.0385 152 57 92 152 56.0385 92.9615 152 57 
92 153 56.0385 91.0385 153 57 92.9615 153 57 
92 154 56.0385 91.0385 154 57 92.9615 154 57 
92 155 56.0385 91.0385 155 57 92.9615 155 57 
92 155.962 57 100 177 56.0385 100 176.038 57 
99.0385 177 57 101 177 56.0385 101 176.038 57 
101.962 177 57 100 178 56.0385 99.0385 178 57 
100.962 178 57 101 177.962 57 100 179 56.0385 
99.0385 179 57 100.962 179 57 100 179.962 57 
98 183 56.0385 98 182.038 57 97.0385 183 57 
99 183 56.0385 99 182.038 57 100 183 56.0385 
100 182.038 57 100.962 183 57 98 184 56.0385 
97.0385 184 57 100.962 184 57 98 185 56.0385 
97.0385 185 57 100 185 56.0385 100.962 185 57 
98 186 56.0385 97.0385 186 57 99 185.962 57 
98.9615 186 57 100 185.962 57 91 187 56.0385 
91 186.038 57 90.0385 187 57 92 187 56.0385 
92 186.038 57 92.9615 187 57 98 187 56.0385 
97.0385 187 57 99 186.038 57 99 187 56.0385 
100 187 56.0385 100 186.038 57 100.962 187 57 
91 187.962 57 91.0385 188 57 92 188 56.0385 
92.9615 188 57 98 188 56.0385 97.0385 188 57 
100.962 188 57 92 189 56.0385 91.0385 189 57 
93 188.038 57 93 189 56.0385 94 189 56.0385 
94 188.038 57 94.9615 189 57 96 189 56.0385 
96 188.038 57 95.0385 189 57 97 189 56.0385 
97 188.038 57 100.962 189 57 92 190 56.0385 
91.0385 190 57 94.9615 190 57 96 190 56.0385 
95.0385 190 57 100.962 190 57 92 191 56.0385 
91.0385 191 57 95 190.038 57 95 191 56.0385 
100.962 191 57 92 191.962 57 93 191.962 57 
94 192 56.0385 93.0385 192 57 100.962 192 57 
94 192.962 57 94.0385 193 57 100.962 193 57 
95 193.962 57 96 193.962 57 97 193.962 57 
98 194 56.0385 97.0385 194 57 100.962 194 57 
98 194.962 57 98.0385 195 57 99.9615 195 57 
100 194.962 57 99 195.962 57 97 148 57.0385 
97 147.038 58 96.0385 148 58 98 148 57.0385 
98 147.038 58 98.9615 148 58 96 149 57.0385 
96 148.038 58 95.0385 149 58 97 149 57.0385 
98 149 57.0385 98.9615 149 58 91 150 57.0385 
91 149.038 58 90.0385 150 58 92 150 57.0385 
92 149.038 58 93 150 57.0385 93 149.038 58 
94 150 57.0385 94 149.038 58 95 150 57.0385 
95 149.038 58 96 150 57.0385 97 150 57.0385 
98 150 57.0385 98.9615 150 58 90.0385 151 58 
93 151 57.0385 94 151 57.0385 95 151 57.0385 
96 151 57.0385 97 151 57.0385 98 151 57.0385 
98.9615 151 58 91 152 57.0385 90.0385 152 58 
93 152 57.0385 94 152 57.0385 95 152 57.0385 
96 152 57.0385 97 152 57.0385 98 152 57.0385 
98.9615 152 58 91 153 57.0385 90.0385 153 58 
93 153 57.0385 94 153 57.0385 95 153 57.0385 
96 153 57.0385 97 153 57.0385 98 153 57.0385 
98.9615 153 58 91 154 57.0385 90.0385 154 58 
93 154 57.0385 94 154 57.0385 95 154 57.0385 
96 154 57.0385 97 154 57.0385 98 154 57.0385 
98.9615 154 58 91 155 57.0385 90.0385 155 58 
93 155 57.0385 94 155 57.0385 95 155 57.0385 
96 155 57.0385 97 155 57.0385 98 155 57.0385 
98.9615 155 58 91 155.962 58 92 155.962 58 
93 156 57.0385 92.0385 156 58 94 156 57.0385 
95 156 57.0385 96 156 57.0385 97 156 57.0385 
98 156 57.0385 99 155.038 58 99 156 57.0385 
100 156 57.0385 100 155.038 58 100.962 156 58 
93 157 57.0385 92.0385 157 58 94 157 57.0385 
95 157 57.0385 96 157 57.0385 97 157 57.0385 
98 157 57.0385 99 157 57.0385 100 157 57.0385 
100.962 157 58 93 158 57.0385 92.0385 158 58 
94 158 57.0385 95 158 57.0385 96 158 57.0385 
97 158 57.0385 98 158 57.0385 99 158 57.0385 
100 158 57.0385 100.962 158 58 93 159 57.0385 
92.0385 159 58 94 159 57.0385 95 159 57.0385 
96 159 57.0385 97 159 57.0385 98 159 57.0385 
99 159 57.0385 100 159 57.0385 100.962 159 58 
93 160 57.0385 92.0385 160 58 94 160 57.0385 
95 160 57.0385 96 160 57.0385 97 160 57.0385 
98 160 57.0385 99 160 57.0385 100 160 57.0385 
101 159.038 58 101 160 57.0385 102 160 57.0385 
102 159.038 58 102.962 160 58 92 161 57.0385 
92 160.038 58 91.0385 161 58 93 161 57.0385 
94 161 57.0385 95 161 57.0385 96 161 57.0385 
97 161 57.0385 98 161 57.0385 99 161 57.0385 
100 161 57.0385 101 161 57.0385 102 161 57.0385 
102.962 161 58 91 162 57.0385 91 161.038 58 
90.0385 162 58 92 162 57.0385 93 162 57.0385 
94 162 57.0385 95 162 57.0385 96 162 57.0385 
97 162 57.0385 98 162 57.0385 99 162 57.0385 
100 162 57.0385 101 162 57.0385 102 162 57.0385 
102.962 162 58 91 163 57.0385 90.0385 163 58 
92 163 57.0385 93 163 57.0385 94 163 57.0385 
95 163 57.0385 96 163 57.0385 97 163 57.0385 
98 163 57.0385 99 163 57.0385 100 163 57.0385 
101 163 57.0385 102 163 57.0385 102.962 163 58 
91 164 57.0385 90.0385 164 58 92 164 57.0385 
93 164 57.0385 94 164 57.0385 95 164 57.0385 
96 164 57.0385 97 164 57.0385 98 164 57.0385 
99 164 57.0385 100 164 57.0385 101 164 57.0385 
102 164 57.0385 102.962 164 58 91 165 57.0385 
90.0385 165 58 92 165 57.0385 93 165 57.0385 
94 165 57.0385 95 165 57.0385 96 165 57.0385 
97 165 57.0385 98 165 57.0385 99 165 57.0385 
100 165 57.0385 101 165 57.0385 102 165 57.0385 
102.962 165 58 91 166 57.0385 90.0385 166 58 
92 166 57.0385 93 166 57.0385 94 166 57.0385 
95 166 57.0385 96 166 57.0385 97 166 57.0385 
98 166 57.0385 99 166 57.0385 100 166 57.0385 
101 166 57.0385 102 166 57.0385 102.962 166 58 
91 167 57.0385 90.0385 167 58 92 167 57.0385 
93 167 57.0385 94 167 57.0385 95 167 57.0385 
96 167 57.0385 97 167 57.0385 98 167 57.0385 
99 167 57.0385 100 167 57.0385 101 167 57.0385 
102 167 57.0385 102.962 167 58 91 168 57.0385 
90.0385 168 58 92 168 57.0385 93 168 57.0385 
94 168 57.0385 95 168 57.0385 96 168 57.0385 
97 168 57.0385 98 168 57.0385 99 168 57.0385 
100 168 57.0385 101 168 57.0385 102 168 57.0385 
102.962 168 58 91 169 57.0385 90.0385 169 58 
92 169 57.0385 93 169 57.0385 94 169 57.0385 
95 169 57.0385 96 169 57.0385 97 169 57.0385 
98 169 57.0385 99 169 57.0385 100 169 57.0385 
101 169 57.0385 102 169 57.0385 102.962 169 58 
91 170 57.0385 90.0385 170 58 92 170 57.0385 
93 170 57.0385 94 170 57.0385 95 170 57.0385 
96 170 57.0385 97 170 57.0385 98 170 57.0385 
99 170 57.0385 100 170 57.0385 101 170 57.0385 
102 170 57.0385 102.962 170 58 91 171 57.0385 
90.0385 171 58 92 171 57.0385 93 171 57.0385 
94 171 57.0385 95 171 57.0385 96 171 57.0385 
97 171 57.0385 98 171 57.0385 99 171 57.0385 
100 171 57.0385 101 171 57.0385 102 171 57.0385 
102.962 171 58 91 172 57.0385 90.0385 172 58 
92 172 57.0385 93 172 57.0385 94 172 57.0385 
95 172 57.0385 96 172 57.0385 97 172 57.0385 
98 172 57.0385 99 172 57.0385 100 172 57.0385 
101 172 57.0385 102 172 57.0385 102.962 172 58 
91 173 57.0385 90.0385 173 58 92 173 57.0385 
93 173 57.0385 94 173 57.0385 95 173 57.0385 
96 173 57.0385 97 173 57.0385 98 173 57.0385 
99 173 57.0385 100 173 57.0385 101 173 57.0385 
102 173 57.0385 102.962 173 58 91 174 57.0385 
90.0385 174 58 92 174 57.0385 93 174 57.0385 
94 174 57.0385 95 174 57.0385 96 174 57.0385 
97 174 57.0385 98 174 57.0385 99 174 57.0385 
100 174 57.0385 101 174 57.0385 102 174 57.0385 
102.962 174 58 91 175 57.0385 90.0385 175 58 
92 175 57.0385 93 175 57.0385 94 175 57.0385 
95 175 57.0385 96 175 57.0385 97 175 57.0385 
98 175 57.0385 99 175 57.0385 100 175 57.0385 
101 175 57.0385 102 175 57.0385 102.962 175 58 
91 176 57.0385 90.0385 176 58 92 176 57.0385 
93 176 57.0385 94 176 57.0385 95 176 57.0385 
96 176 57.0385 97 176 57.0385 98 176 57.0385 
99 176 57.0385 100 176 57.0385 101 176 57.0385 
102 176 57.0385 102.962 176 58 91 177 57.0385 
90.0385 177 58 92 177 57.0385 93 177 57.0385 
94 177 57.0385 95 177 57.0385 96 177 57.0385 
97 177 57.0385 98 177 57.0385 99 177 57.0385 
102 177 57.0385 102.962 177 58 91 178 57.0385 
90.0385 178 58 92 178 57.0385 93 178 57.0385 
94 178 57.0385 95 178 57.0385 96 178 57.0385 
97 178 57.0385 98 178 57.0385 99 178 57.0385 
101 178 57.0385 102 178 57.0385 102.962 178 58 
91 179 57.0385 90.0385 179 58 92 179 57.0385 
93 179 57.0385 94 179 57.0385 95 179 57.0385 
96 179 57.0385 97 179 57.0385 98 179 57.0385 
99 179 57.0385 101 179 57.0385 101.962 179 58 
102 178.962 58 91 180 57.0385 90.0385 180 58 
92 180 57.0385 93 180 57.0385 94 180 57.0385 
95 180 57.0385 96 180 57.0385 97 180 57.0385 
98 180 57.0385 99 180 57.0385 100 180 57.0385 
100.962 180 58 101 179.962 58 91 181 57.0385 
90.0385 181 58 92 181 57.0385 93 181 57.0385 
94 181 57.0385 95 181 57.0385 96 181 57.0385 
97 181 57.0385 98 181 57.0385 99 181 57.0385 
100 181 57.0385 100.962 181 58 91 182 57.0385 
90.0385 182 58 92 182 57.0385 93 182 57.0385 
94 182 57.0385 95 182 57.0385 96 182 57.0385 
97 182 57.0385 98 182 57.0385 99 182 57.0385 
100 182 57.0385 100.962 182 58 91 183 57.0385 
90.0385 183 58 92 183 57.0385 93 183 57.0385 
94 183 57.0385 95 183 57.0385 96 183 57.0385 
[...]
POINT_DATA 3352
SCALARS scalars float
LOOKUP_TABLE default
1 1 1 1 1 1 1 1 1 
1 1 1 1 1 1 1 1 1 
1 1 1 1 1 1 1 1 1 
1 1 1 1 1 1 1 1 1 
1 1 1 1 1 1 1 1 1 
1 1 1 1 1 1 1 1 1 
1 1 1 1 1 1 1 1 1 
1 1 1 1 1 1 1 1 1 
1 1 1 1 1 1 1 1 1 
1 1 1 1 1 1 1 1 1 
1 1 1 1 1 1 1 1 1 
1 1 1 1 1 1 1 1 1 
1 1 1 1 1 1 1 1 1 
1 1 1 1 1 1 1 1 1 
1 1 1 1 1 1 1 1 1 
1 1 1 1 1 1 1 1 1 
1 1 1 1 1 1 1 1 1 
1 1 1 1 1 1 1 1 1 
1 1 1 1 1 1 1 1 1 
1 1 1 1 1 1 1 1 1 
1 1 1 1 1 1 1 1 1 
1 1 1 1 1 1 1 1 1 
1 1 1 1 1 1 1 1 1 
1 1 1 1 1 1 1 1 1 
1 1 1 1 1 1 1 1 1 
1 1 1 1 1 1 1 1 1 
1 1 1 1 1 1 1 1 1 
1 1 1 1 1 1 1 1 1 
1 1 1 1 1 1 1 1 1 
1 1 1 1 1 1 1 1 1 
1 1 1 1 1 1 1 1 1 
1 1 1 1 1 1 1 1 1 
1 1 1 1 1 1 1 1 1 
1 1 1 1 1 1 1 1 1 
1 1 1 1 1 1 1 1 1 
1 1 1 1 1 1 1 1 1 
1 1 1 1 1 1 1 1 1 
1 1 1 1 1 1 1 1 1 
1 1 1 1 1 1 1 1 1 
1 1 1 1 1 1 1 1 1 
1 1 1 1 1 1 1 1 1 
1 1 1 1 1 1 1 1 1 
1 1 1 1 1 1 1 1 1 
1 1 1 1 1 1 1 1 1 
1 1 1 1 1 1 1 1 1 
1 1 1 1 1 1 1 1 1 
1 1 1 1 1 1 1 1 1 
1 1 1 1 1 1 1 1 1 
1 1 1 1 1 1 1 1 1 
1 1 1 1 1 1 1 1 1 
1 1 1 1 1 1 1 1 1 
1 1 1 1 1 1 1 1 1 
1 1 1 1 1 1 1 1 1 
1 1 1 1 1 1 1 1 1 
1 1 1 1 1 1 1 1 1 
1 1 1 1 1 1 1 1 1 
1 1 1 1 1 1 1 1 1 
1 1 1 1 1 1 1 1 1 
1 1 1 1 1 1 1 1 1 
1 1 1 1 1 1 1 1 1 
1 1 1 1 1 1 1 1 1 
1 1 1 1 1 1 1 1 1 
1 1 1 1 1 1 1 1 1 
1 1 1 1 1 1 1 1 1 
1 1 1 1 1 1 1 1 1 
1 1 1 1 1 1 1 1 1 
1 1 1 1 1 1 1 1 1 
1 1 1 1 1 1 1 1 1 
1 1 1 1 1 1 1 1 1 
1 1 1 1 1 1 1 1 1 
1 1 1 1 1 1 1 1 1 
1 1 1 1 1 1 1 1 1 
1 1 1 1 1 1 1 1 1 
1 1 1 1 1 1 1 1 1 
1 1 1 1 1 1 1 1 1 
1 1 1 1 1 1 1 1 1 
1 1 1 1 1 1 1 1 1 
1 1 1 1 1 1 1 1 1 
1 1 1 1 1 1 1 1 1 
1 1 1 1 1 1 1 1 1 
1 1 1 1 1 1 1 1 1 
1 1 1 1 1 1 1 1 1 
1 1 1 1 1 1 1 1 1 
1 1 1 1 1 1 1 1 1 
1 1 1 1 1 1 1 1 1 
1 1 1 1 1 1 1 1 1 
1 1 1 1 1 1 1 1 1 
1 1 1 1 1 1 1 1 1 
1 1 1 1 1 1 1 1 1 
1 1 1 1 1 1 1 1 1 
1 1 1 1 1 1 1 1 1 
1 1 1 1 1 1 1 1 1 
1 1 1 1 1 1 1 1 1 
1 1 1 1 1 1 1 1 1 
1 1 1 1 1 1 1 1 1 
1 1 1 1 1 1 1 1 1 
1 1 1 1 1 1 1 1 1 
1 1 1 1 1 1 1 1 1 
1 1 1 1 1 1 1 1 1 
1 1 1 1 1 1 1 1 1 
1 1 1 1 1 1 1 1 1 
1 1 1 1 1 1 1 1 1 
1 1 1 1 1 1 1 1 1 
1 1 1 1 1 1 1 1 1 
1 1 1 1 1 1 1 1 1 
1 1 1 1 1 1 1 1 1 
1 1 1 1 1 1 1 1 1 
1 1 1 1 1 1 1 1 1 
1 1 1 1 1 1 1 1 1 
1 1 1 1 1 1 1 1 1 
1 1 1 1 1 1 1 1 1 
1 1 1 1 1 1 1 1 1 
1 1 1 1 1 1 1 1 1 
1 1 1 1 1 1 1 1 1 
1 1 1 1 1 1 1 1 1 
1 1 1 1 1 1 1 1 1 
1 1 1 1 1 1 1 1 1 
1 1 1 1 1 1 1 1 1 
1 1 1 1 1 1 1 1 1 
1 1 1 1 1 1 1 1 1 
1 1 1 1 1 1 1 1 1 
1 1 1 1 1 1 1 1 1 
1 1 1 1 1 1 1 1 1 
1 1 1 1 1 1 1 1 1 
1 1 1 1 1 1 1 1 1 
1 1 1 1 1 1 1 1 1 
1 1 1 1 1 1 1 1 1 
1 1 1 1 1 1 1 1 1 
1 1 1 1 1 1 1 1 1 
1 1 1 1 1 1 1 1 1 
1 1 1 1 1 1 1 1 1 
1 1 1 1 1 1 1 1 1 
1 1 1 1 1 1 1 1 1 
1 1 1 1 1 1 1 1 1 
1 1 1 1 1 1 1 1 1 
1 1 1 1 1 1 1 1 1 
1 1 1 1 1 1 1 1 1 
1 1 1 1 1 1 1 1 1 
1 1 1 1 1 1 1 1 1 
1 1 1 1 1 1 1 1 1 
1 1 1 1 1 1 1 1 1 
1 1 1 1 1 1 1 1 1 
1 1 1 1 1 1 1 1 1 
1 1 1 1 1 1 1 1 1 
1 1 1 1 1 1 1 1 1 
1 1 1 1 1 1 1 1 1 
1 1 1 1 1 1 1 1 1 
1 1 1 1 1 1 1 1 1 
1 1 1 1 1 1 1 1 1 
1 1 1 1 1 1 1 1 1 
1 1 1 1 1 1 1 1 1 
1 1 1 1 1 1 1 1 1 
1 1 1 1 1 1 1 1 1 
1 1 1 1 1 1 1 1 1 
1 1 1 1 1 1 1 1 1 
1 1 1 1 1 1 1 1 1 
1 1 1 1 1 1 1 1 1 
1 1 1 1 1 1 1 1 1 
1 1 1 1 1 1 1 1 1 
1 1 1 1 1 1 1 1 1 
1 1 1 1 1 1 1 1 1 
1 1 1 1 1 1 1 1 1 
1 1 1 1 1 1 1 1 1 
1 1 1 1 1 1 1 1 1 
1 1 1 1 1 1 1 1 1 
1 1 1 1 1 1 1 1 1 
1 1 1 1 1 1 1 1 1 
1 1 1 1 1 1 1 1 1 
1 1 1 1 1 1 1 1 1 
1 1 1 1 1 1 1 1 1 
1 1 1 1 1 1 1 1 1 
1 1 1 1 1 1 1 1 1 
1 1 1 1 1 1 1 1 1 
1 1 1 1 1 1 1 1 1 
1 1 1 1 1 1 1 1 1 
1 1 1 1 1 1 1 1 1 
1 1 1 1 1 1 1 1 1 
1 1 1 1 1 1 1 1 1 
1 1 1 1 1 1 1 1 1 
1 1 1 1 1 1 1 1 1 
1 1 1 1 1 1 1 1 1 
1 1 1 1 1 1 1 1 1 
1 1 1 1 1 1 1 1 1 
1 1 1 1 1 1 1 1 1 
1 1 1 1 1 1 1 1 1 
1 1 1 1 1 1 1 1 1 
1 1 1 1 1 1 1 1 1 
1 1 1 1 1 1 1 1 1 
1 1 1 1 1 1 1 1 1 
1 1 1 1 1 1 1 1 1 
1 1 1 1 1 1 1 1 1 
1 1 1 1 1 1 1 1 1 
1 1 1 1 1 1 1 1 1 
1 1 1 1 1 1 1 1 1 
1 1 1 1 1 1 1 1 1 
1 1 1 1 1 1 1 1 1 
1 1 1 1 1 1 1 1 1 
1 1 1 1 1 1 1 1 1 
1 1 1 1 1 1 1 1 1 
1 1 1 1 1 1 1 1 1 
1 1 1 1 1 1 1 1 1 
1 1 1 1 1 1 1 1 1 
1 1 1 1 1 1 1 1 1 
1 1 1 1 1 1 1 1 1 
1 1 1 1 1 1 1 1 1 
1 1 1 1 1 1 1 1 1 
1 1 1 1 1 1 1 1 1 
1 1 1 1 1 1 1 1 1 
1 1 1 1 1 1 1 1 1 
1 1 1 1 1 1 1 1 1 
1 1 1 1 1 1 1 1 1 
1 1 1 1 1 1 1 1 1 
1 1 1 1 1 1 1 1 1 
1 1 1 1 1 1 1 1 1 
1 1 1 1 1 1 1 1 1 
1 1 1 1 1 1 1 1 1 
1 1 1 1 1 1 1 1 1 
1 1 1 1 1 1 1 1 1 
1 1 1 1 1 1 1 1 1 
1 1 1 1 1 1 1 1 1 
1 1 1 1 1 1 1 1 1 
1 1 1 1 1 1 1 1 1 
1 1 1 1 1 1 1 1 1 
1 1 1 1 1 1 1 1 1 
1 1 1 1 1 1 1 1 1 
1 1 1 1 1 1 1 1 1 
1 1 1 1 1 1 1 1 1 
1 1 1 1 1 1 1 1 1 
1 1 1 1 1 1 1 1 1 
1 1 1 1 1 1 1 1 1 
1 1 1 1 1 1 1 1 1 
1 1 1 1 1 1 1 1 1 
1 1 1 1 1 1 1 1 1 
1 1 1 1 1 1 1 1 1 
1 1 1 1 1 1 1 1 1 
1 1 1 1 1 1 1 1 1 
1 1 1 1 1 1 1 1 1 
1 1 1 1 1 1 1 1 1 
1 1 1 1 1 1 1 1 1 
1 1 1 1 1 1 1 1 1 
1 1 1 1 1 1 1 1 1 
1 1 1 1 1 1 1 1 1 
1 1 1 1 1 1 1 1 1 
1 1 1 1 1 1 1 1 1 
1 1 1 1 1 1 1 1 1 
1 1 1 1 1 1 1 1 1 
1 1 1 1 1 1 1 1 1 
1 1 1 1 1 1 1 1 1 
1 1 1 1 1 1 1 1 1 
1 1 1 1 1 1 1 1 1 
1 1 1 1 1 1 1 1 1 
1 1 1 1 1 1 1 1 1 
1 1 1 1 1 1 1 1 1 
1 1 1 1 1 1 1 1 1 
1 1 1 1 1 1 1 1 1 
1 1 1 1 1 1 1 1 1 
1 1 1 1 1 1 1 1 1 
1 1 1 1 1 1 1 1 1 
1 1 1 1 1 1 1 1 1 
1 1 1 1 1 1 1 1 1 
1 1 1 1 1 1 1 1 1 
1 1 1 1 1 1 1 1 1 
1 1 1 1 1 1 1 1 1 
1 1 1 1 1 1 1 1 1 
1 1 1 1 1 1 1 1 1 
1 1 1 1 1 1 1 1 1 
1 1 1 1 1 1 1 1 1 
1 1 1 1 1 1 1 1 1 
1 1 1 1 1 1 1 1 1 
1 1 1 1 1 1 1 1 1 
1 1 1 1 1 1 1 1 1 
1 1 1 1 1 1 1 1 1 
1 1 1 1 1 1 1 1 1 
1 1 1 1 1 1 1 1 1 
1 1 1 1 1 1 1 1 1 
1 1 1 1 1 1 1 1 1 
1 1 1 1 1 1 1 1 1 
1 1 1 1 1 1 1 1 1 
1 1 1 1 1 1 1 1 1 
1 1 1 1 1 1 1 1 1 
1 1 1 1 1 1 1 1 1 
1 1 1 1 1 1 1 1 1 
1 1 1 1 1 1 1 1 1 
1 1 1 1 1 1 1 1 1 
1 1 1 1 1 1 1 1 1 
1 1 1 1 1 1 1 1 1 
1 1 1 1 1 1 1 1 1 
1 1 1 1 1 1 1 1 1 
1 1 1 1 1 1 1 1 1 
1 1 1 1 1 1 1 1 1 
1 1 1 1 1 1 1 1 1 
1 1 1 1 1 1 1 1 1 
1 1 1 1 1 1 1 1 1 
1 1 1 1 1 1 1 1 1 
1 1 1 1 1 1 1 1 1 
1 1 1 1 1 1 1 1 1 
1 1 1 1 1 1 1 1 1 
1 1 1 1 1 1 1 1 1 
1 1 1 1 1 1 1 1 1 
1 1 1 1 1 1 1 1 1 
1 1 1 1 1 1 1 1 1 
1 1 1 1 1 1 1 1 1 
1 1 1 1 1 1 1 1 1 
1 1 1 1 1 1 1 1 1 
1 1 1 1 1 1 1 1 1 
1 1 1 1 1 1 1 1 1 
1 1 1 1 1 1 1 1 1 
1 1 1 1 1 1 1 1 1 
1 1 1 1 1 1 1 1 1 
1 1 1 1 1 1 1 1 1 
1 1 1 1 1 1 1 1 1 
1 1 1 1 1 1 1 1 1 
1 1 1 1 1 1 1 1 1 
1 1 1 1 1 1 1 1 1 
1 1 1 1 1 1 1 1 1 
1 1 1 1 1 1 1 1 1 
1 1 1 1 1 1 1 1 1 
1 1 1 1 1 1 1 1 1 
1 1 1 1 1 1 1 1 1 
1 1 1 1 1 1 1 1 1 
1 1 1 1 1 1 1 1 1 
1 1 1 1 1 1 1 1 1 
1 1 1 1 1 1 1 1 1 
1 1 1 1 1 1 1 1 1 
1 1 1 1 1 1 1 1 1 
1 1 1 1 1 1 1 1 1 
1 1 1 1 1 1 1 1 1 
1 1 1 1 1 1 1 1 1 
1 1 1 1 1 1 1 1 1 
1 1 1 1 1 1 1 1 1 
1 1 1 1 1 1 1 1 1 
1 1 1 1 1 1 1 1 1 
1 1 1 1 1 1 1 1 1 
1 1 1 1 1 1 1 1 1 
1 1 1 1 1 1 1 1 1 
1 1 1 1 1 1 1 1 1 
1 1 1 1 1 1 1 1 1 
1 1 1 1 1 1 1 1 1 
1 1 1 1 1 1 1 1 1 
1 1 1 1 1 1 1 1 1 
1 1 1 1 1 1 1 1 1 
1 1 1 1 1 1 1 1 1 
1 1 1 1 1 1 1 1 1 
1 1 1 1 1 1 1 1 1 
1 1 1 1 1 1 1 1 1 
1 1 1 1 1 1 1 1 1 
1 1 1 1 1 1 1 1 1 
1 1 1 1 1 1 1 1 1 
1 1 1 1 1 1 1 1 1 
1 1 1 1 1 1 1 1 1 
1 1 1 1 1 1 1 1 1 
1 1 1 1 1 1 1 1 1 
1 1 1 1 1 1 1 1 1 
1 1 1 1 1 1 1 1 1 
1 1 1 1 1 1 1 1 1 
1 1 1 1 1 1 1 1 1 
1 1 1 1 1 1 1 1 1 
1 1 1 1 1 1 1 1 1 
1 1 1 1 1 1 1 1 1 
1 1 1 1 1 1 1 1 1 
1 1 1 1 1 1 1 1 1 
1 1 1 1 1 1 1 1 1 
1 1 1 1 1 1 1 1 1 
1 1 1 1 1 1 1 1 1 
1 1 1 1 1 1 1 1 1 
1 1 1 1 1 1 1 1 1 
1 1 1 1 1 1 1 1 1 
1 1 1 1 1 1 1 1 1 
1 1 1 1 1 1 1 1 1 
1 1 1 1 1 1 1 1 1 
1 1 1 1 1 1 1 1 1 
1 1 1 1 1 1 1 1 1 
1 1 1 1 
NORMALS normals float
0 -0.0384331 -0.999261 0 -0.999261 -0.0384331 -0.998404 -0.0399362 -0.0399362 
0.692842 -0.0277137 -0.720556 0 0.0384331 -0.999261 -0.692842 0.0277137 -0.720556 
0.692842 0.0277137 -0.720556 0 0.707107 -0.707107 -0.0384331 0 -0.999261 
-0.0277137 -0.692842 -0.720556 -0.707107 0 -0.707107 0.0384331 0 -0.999261 
0.0277137 -0.692842 -0.720556 0.707107 0 -0.707107 -0.0399362 0.998404 -0.0399362 
0.0277137 0.692842 -0.720556 -0.0384048 -0.0384048 -0.998524 -0.0271864 -0.706845 -0.706845 
-0.706845 -0.0271864 -0.706845 0.0384331 0 -0.999261 0.0277137 -0.692842 -0.720556 
0.999261 0 -0.0384331 0 0.0384331 -0.999261 -0.692842 0.0277137 -0.720556 
0.562259 0.58475 -0.58475 0.58475 0.562259 -0.58475 0 0.999261 -0.0384331 
-0.0384048 -0.0384048 -0.998524 -0.0271864 -0.706845 -0.706845 -0.57735 -0.57735 -0.57735 
0.0384048 -0.0384048 -0.998524 0.0271864 -0.706845 -0.706845 0.998524 -0.0384048 -0.0384048 
-0.0384048 -0.0384048 -0.998524 -0.57735 -0.57735 -0.57735 -0.57735 -0.57735 -0.57735 
0 0 -1 0.0384331 0 -0.999261 0.999261 0 -0.0384331 
-0.0384048 -0.0384048 -0.998524 -0.0271864 -0.706845 -0.706845 -0.706845 -0.0271864 -0.706845 
0.0384048 -0.0384048 -0.998524 0.0271864 -0.706845 -0.706845 0.998524 -0.0384048 -0.0384048 
-0.0384048 -0.0384048 -0.998524 -0.57735 -0.57735 -0.57735 -0.57735 -0.57735 -0.57735 
0 0 -1 0 0 -1 0.0384331 0 -0.999261 
0.999261 0 -0.0384331 -0.0384048 0.0384048 -0.998524 -0.706845 0.0271864 -0.706845 
0.0384048 0.0384048 -0.998524 0.0282504 -0.678009 -0.73451 -0.58475 -0.58475 -0.562259 
-0.0277137 -0.720556 -0.692842 0.693109 0 -0.720833 0 0 -1 
0 0 -1 0.0384331 0 -0.999261 0.999261 0 -0.0384331 
-0.0384048 0.998524 -0.0384048 -0.546585 0.592134 -0.592134 -0.0271864 -0.706845 -0.706845 
-0.592134 0.546585 -0.592134 -0.706845 -0.0271864 -0.706845 0.693109 0 -0.720833 
0 -0.693109 -0.720833 0 -0.693109 -0.720833 0.0384331 0 -0.999261 
0.999261 0 -0.0384331 -0.0384048 0.0384048 -0.998524 -0.998524 0.0384048 -0.0384048 
0 0.707107 -0.707107 -0.692842 0.0277137 -0.720556 0.707107 0 -0.707107 
0.999261 0 -0.0384331 -0.0384048 0.998524 -0.0384048 0 0.999261 -0.0384331 
0 0.999261 -0.0384331 -0.569655 0.592441 -0.569655 -0.0277137 0.692842 -0.720556 
-0.58475 0.562259 -0.58475 0.0384048 0.0384048 -0.998524 0.998524 0.0384048 -0.0384048 
0 0.0384331 -0.999261 -0.998404 0.0399362 -0.0399362 0.692842 0.720556 -0.0277137 
0.706845 0.706845 -0.0271864 0 0.999261 -0.0384331 -0.0384331 0 -0.999261 
-0.0277137 -0.692842 -0.720556 -0.999261 0 -0.0384331 0.0384048 -0.0384048 -0.998524 
0.0271864 -0.706845 -0.706845 0.706845 -0.0271864 -0.706845 -0.58475 0.562259 -0.58475 
-0.569655 0.569655 -0.592441 0 0 -1 0.693109 0 -0.720833 
0 0 -1 -0.693109 0 -0.720833 0.693109 0 -0.720833 
0 0 -1 -0.693109 0 -0.720833 0.693109 0 -0.720833 
0 0.0384331 -0.999261 -0.692842 0.0277137 -0.720556 0.692842 0.0277137 -0.720556 
0 0.999261 -0.0384331 -0.0384048 -0.0384048 -0.998524 -0.0271864 -0.706845 -0.706845 
-0.706845 -0.0271864 -0.706845 0.0384331 0 -0.999261 0.0277137 -0.692842 -0.720556 
0.707107 0 -0.707107 0 0 -1 -0.693109 0 -0.720833 
0.569655 0.569655 -0.592441 0.58475 0.562259 -0.58475 0 0.0384331 -0.999261 
-0.692842 0.0277137 -0.720556 0.692842 0.0277137 -0.720556 0 0.707107 -0.707107 
-0.0384048 -0.0384048 -0.998524 -0.0271864 -0.706845 -0.706845 -0.706845 -0.0271864 -0.706845 
0 -0.707107 -0.707107 0 -0.707107 -0.707107 0.0271864 -0.706845 -0.706845 
0.0271864 -0.706845 -0.706845 0.998524 -0.0384048 -0.0384048 -0.707107 0 -0.707107 
-0.707107 0 -0.707107 0.720833 0 -0.693109 -0.707107 0 -0.707107 
-0.707107 0 -0.707107 0.57735 0.57735 -0.57735 0.706845 0.0271864 -0.706845 
0 0 -1 -0.693109 0 -0.720833 0.706824 0.028273 -0.706824 
0.693109 0 -0.720833 0.0384048 0.0384048 -0.998524 -0.0384331 0 -0.999261 
-0.0277137 -0.692842 -0.720556 -0.999261 0 -0.0384331 0.0384048 -0.0384048 -0.998524 
0.0271864 -0.706845 -0.706845 0.706845 -0.0271864 -0.706845 -0.0384331 0 -0.999261 
-0.707107 0 -0.707107 0.692842 -0.0277137 -0.720556 0 -0.707107 -0.707107 
0.0271864 -0.706845 -0.706845 0.0384048 -0.0384048 -0.998524 0.706845 -0.0271864 -0.706845 
-0.58475 0.562259 -0.58475 -0.569655 0.569655 -0.592441 0 0 -1 
0.569655 -0.569655 -0.592441 -0.58475 -0.562259 -0.58475 -0.58475 -0.562259 -0.58475 
0.720833 0 -0.693109 -0.0384331 0 -0.999261 -0.707107 0 -0.707107 
0.562259 -0.58475 -0.58475 0 -0.707107 -0.707107 0.0271864 -0.706845 -0.706845 
0.0271864 -0.706845 -0.706845 0.0384048 -0.0384048 -0.998524 -0.0384048 -0.0384048 -0.998524 
-0.0271864 -0.706845 -0.706845 -0.0384048 -0.0384048 -0.998524 -0.562259 -0.58475 -0.58475 
-0.562259 -0.58475 -0.58475 0.720833 0 -0.693109 -0.707107 0 -0.707107 
-0.707107 0 -0.707107 0.028273 -0.706824 -0.706824 -0.58475 -0.562259 -0.58475 
-0.0277137 -0.692842 -0.720556 1 0 0 -0.706845 0.0271864 -0.706845 
-0.706845 0.0271864 -0.706845 0 -0.707107 -0.707107 0 -0.707107 -0.707107 
1 0 0 -0.0271864 0.706845 -0.706845 -0.569655 0.592441 -0.569655 
-0.57735 0.57735 -0.57735 -0.57735 0.57735 -0.57735 1 0 0 
-0.57735 0.57735 -0.57735 -0.58475 0.58475 -0.562259 1 0 0 
-0.0277137 0.720556 -0.692842 0 0.720833 -0.693109 -0.569655 0.592441 -0.569655 
-0.57735 0.57735 -0.57735 -0.57735 0.57735 -0.57735 0.999261 0.0384331 0 
-0.57735 0.57735 -0.57735 -0.569655 0.592441 -0.569655 0.693109 0.720833 0 
0.707107 0.707107 0 0 1 0 -0.0384048 -0.0384048 -0.998524 
-0.0384048 -0.998524 -0.0384048 -0.706845 -0.706845 -0.0271864 0.0384048 -0.0384048 -0.998524 
0.0384048 -0.998524 -0.0384048 0.998524 -0.0384048 -0.0384048 -0.0399362 -0.0399362 -0.998404 
-0.707107 -0.707107 0 -0.707107 -0.707107 0 0 0 -1 
0.0384331 0 -0.999261 0.999261 0 -0.0384331 -0.0271864 -0.706845 -0.706845 
-0.0271864 -0.706845 -0.706845 -0.706845 -0.0271864 -0.706845 0 -0.707107 -0.707107 
0 -0.707107 -0.707107 0 -0.0384331 -0.999261 0 -0.707107 -0.707107 
0 -0.0384331 -0.999261 0 -0.707107 -0.707107 0 -0.0384331 -0.999261 
-0.692842 -0.720556 -0.0277137 0 0 -1 0 0 -1 
0.0384331 0 -0.999261 0.999261 0 -0.0384331 -0.720833 0 -0.693109 
0.693109 0 -0.720833 0 0 -1 0 0 -1 
0 0 -1 0 0 -1 0.0384331 0 -0.999261 
0.999261 0 -0.0384331 -0.58475 0.562259 -0.58475 -0.707107 0 -0.707107 
0.693109 0 -0.720833 0 0 -1 0 0 -1 
0 0 -1 0 0 -1 0.0384331 0 -0.999261 
0.999261 0 -0.0384331 -0.707107 0 -0.707107 -0.707107 0 -0.707107 
0.693109 0 -0.720833 0 0 -1 0 0 -1 
0 0 -1 0 0 -1 0.0384331 0 -0.999261 
0.999261 0 -0.0384331 -0.707107 0 -0.707107 -0.707107 0 -0.707107 
0.693109 0 -0.720833 0 0 -1 0 0 -1 
0 0 -1 0 0 -1 0.0384331 0 -0.999261 
0.999261 0 -0.0384331 -0.706845 0.0271864 -0.706845 -0.706845 0.0271864 -0.706845 
0.693109 0 -0.720833 0 0 -1 0 0 -1 
0 0 -1 0 0 -1 0.0384331 0 -0.999261 
0.58475 -0.562259 -0.58475 -0.0384048 0.998524 -0.0384048 -0.569655 0.592441 -0.569655 
-0.0384331 0 -0.999261 -0.58475 0.562259 -0.58475 0 0 -1 
0 0 -1 0 0 -1 0 0 -1 
0 0 -1 0.562259 -0.58475 -0.58475 0 -0.0384331 -0.999261 
0.0384048 -0.0384048 -0.998524 0.0384048 -0.998524 -0.0384048 0.998524 -0.0384048 -0.0384048 
-0.0384331 0 -0.999261 -0.707107 0 -0.707107 0 0 -1 
0 0 -1 0 0 -1 0 0 -1 
0 0 -1 0 0 -1 0.0384331 0 -0.999261 
0.999261 0 -0.0384331 -0.0384331 0 -0.999261 -0.707107 0 -0.707107 
0 0 -1 0 0 -1 0 0 -1 
0 0 -1 0 0 -1 0 0 -1 
0.0384331 0 -0.999261 0.999261 0 -0.0384331 -0.0384331 0 -0.999261 
-0.707107 0 -0.707107 0 0 -1 0 0 -1 
0 0 -1 0 0 -1 0 0 -1 
0 0 -1 0.0384331 0 -0.999261 0.720556 -0.692842 -0.0277137 
-0.0384331 0 -0.999261 -0.58475 -0.562259 -0.58475 0 0 -1 
0 0 -1 0 0 -1 0 0 -1 
0 0 -1 0 0 -1 0 0 -1 
0.692842 -0.720556 -0.0277137 0 -0.0384331 -0.999261 0.0384048 -0.0384048 -0.998524 
0.0384048 -0.998524 -0.0384048 0.998524 -0.0384048 -0.0384048 -0.0384048 -0.0384048 -0.998524 
-0.57735 -0.57735 -0.57735 -0.57735 -0.57735 -0.57735 0 0 -1 
0 0 -1 0 0 -1 0 0 -1 
0 0 -1 0 0 -1 0 0 -1 
0 0 -1 0 0 -1 0.0384331 0 -0.999261 
0.999261 0 -0.0384331 -0.0384048 -0.0384048 -0.998524 -0.57735 -0.57735 -0.57735 
-0.998524 -0.0384048 -0.0384048 0 0 -1 0 0 -1 
0 0 -1 0 0 -1 0 0 -1 
0 0 -1 0 0 -1 0 0 -1 
0 0 -1 0 0 -1 0.0384331 0 -0.999261 
0.999261 0 -0.0384331 -0.0384331 0 -0.999261 -0.999261 0 -0.0384331 
0 0 -1 0 0 -1 0 0 -1 
0 0 -1 0 0 -1 0 0 -1 
0 0 -1 0 0 -1 0 0 -1 
0 0 -1 0.0384331 0 -0.999261 0.999261 0 -0.0384331 
-0.0384331 0 -0.999261 -0.999261 0 -0.0384331 0 0 -1 
0 0 -1 0 0 -1 0 0 -1 
0 0 -1 0 0 -1 0 0 -1 
0 0 -1 0 0 -1 0 0 -1 
0.0384331 0 -0.999261 0.999261 0 -0.0384331 -0.0384331 0 -0.999261 
-0.999261 0 -0.0384331 0 0 -1 0 0 -1 
0 0 -1 0 0 -1 0 0 -1 
0 0 -1 0 0 -1 0 0 -1 
0 0 -1 0 0 -1 0.0384331 0 -0.999261 
0.999261 0 -0.0384331 -0.0384331 0 -0.999261 -0.999261 0 -0.0384331 
0 0 -1 0 0 -1 0 0 -1 
0 0 -1 0 0 -1 0 0 -1 
0 0 -1 0 0 -1 0 0 -1 
0 0 -1 0.0384331 0 -0.999261 0.999261 0 -0.0384331 
-0.0384331 0 -0.999261 -0.999261 0 -0.0384331 0 0 -1 
0 0 -1 0 0 -1 0 0 -1 
0 0 -1 0 0 -1 0 0 -1 
0 0 -1 0 0 -1 0 0 -1 
0.0384331 0 -0.999261 0.999261 0 -0.0384331 -0.0384331 0 -0.999261 
-0.999261 0 -0.0384331 0 0 -1 0 0 -1 
0 0 -1 0 0 -1 0 0 -1 
0 0 -1 0 0 -1 0 0 -1 
0 0 -1 0 0 -1 0.0384331 0 -0.999261 
0.999261 0 -0.0384331 -0.0384331 0 -0.999261 -0.999261 0 -0.0384331 
0 0 -1 0 0 -1 0 0 -1 
0 0 -1 0 0 -1 0 0 -1 
0 0 -1 0 0 -1 0 0 -1 
0 0 -1 0.0384331 0 -0.999261 0.999261 0 -0.0384331 
-0.0384331 0 -0.999261 -0.999261 0 -0.0384331 0 0 -1 
0 0 -1 0 0 -1 0 0 -1 
0 0 -1 0 0 -1 0 0 -1 
0 0 -1 0 0 -1 0 0 -1 
0.0384331 0 -0.999261 0.999261 0 -0.0384331 -0.0384331 0 -0.999261 
-0.999261 0 -0.0384331 0 0 -1 0 0 -1 
0 0 -1 0 0 -1 0 0 -1 
0 0 -1 0 0 -1 0 0 -1 
0 0 -1 0 0 -1 0.0384331 0 -0.999261 
0.707107 0 -0.707107 -0.0384331 0 -0.999261 -0.999261 0 -0.0384331 
0 0 -1 0 0 -1 0 0 -1 
0 0 -1 0 0 -1 0 0 -1 
0 0 -1 0 0 -1 0 0 -1 
0 0 -1 0.0384331 0 -0.999261 0.999261 0 -0.0384331 
-0.0384331 0 -0.999261 -0.999261 0 -0.0384331 0 0 -1 
0 0 -1 0 0 -1 0 0 -1 
0 0 -1 0 0 -1 0 0 -1 
0 0 -1 0 0 -1 0 0 -1 
0.0384331 0 -0.999261 0.999261 0 -0.0384331 -0.0384331 0 -0.999261 
-0.999261 0 -0.0384331 0 0 -1 0 0 -1 
0 0 -1 0 0 -1 0 0 -1 
0 0 -1 0 0 -1 0 0 -1 
0 0 -1 0 0 -1 0.0384331 0 -0.999261 
0.999261 0 -0.0384331 -0.0384331 0 -0.999261 -0.999261 0 -0.0384331 
0 0 -1 0 0 -1 0 0 -1 
0 0 -1 0 0 -1 0 0 -1 
0 0 -1 0 0 -1 0 0 -1 
0 0 -1 0.0384331 0 -0.999261 0.999261 0 -0.0384331 
-0.0384331 0 -0.999261 -0.999261 0 -0.0384331 0 0 -1 
0 0 -1 0 0 -1 0 0 -1 
0 0 -1 0 0 -1 0 0 -1 
0 0 -1 0 -0.693109 -0.720833 0 -0.693109 -0.720833 
0.0384331 0 -0.999261 0.999261 0 -0.0384331 -0.0384331 0 -0.999261 
-0.707107 0 -0.707107 0 0 -1 0 0 -1 
0 0 -1 0 0 -1 0 0 -1 
0 0 -1 0 0 -1 -0.693109 0 -0.720833 
0.707107 0 -0.707107 0.999261 0 -0.0384331 -0.0384331 0 -0.999261 
-0.707107 0 -0.707107 0 0 -1 0 0 -1 
0 0 -1 0 0 -1 0 0 -1 
0 0 -1 0 0 -1 -0.693109 0 -0.720833 
0.569655 0.569655 -0.592441 0.0384048 0.0384048 -0.998524 0.998524 0.0384048 -0.0384048 
-0.0384331 0 -0.999261 -0.707107 0 -0.707107 0 0 -1 
0 0 -1 0 0 -1 0 0 -1 
0 0 -1 0 0 -1 0 0 -1 
-0.693109 0 -0.720833 0.706845 0.0271864 -0.706845 0.706845 0.706845 -0.0271864 
0.706845 0.706845 -0.0271864 -0.0384331 0 -0.999261 -0.999261 0 -0.0384331 
0 0 -1 0 0 -1 0 0 -1 
0 0 -1 0 0 -1 0 0 -1 
0 0 -1 0 0 -1 0.0277137 0.692842 -0.720556 
0.720556 0.692842 -0.0277137 0.706845 0.706845 -0.0271864 -0.0384331 0 -0.999261 
-0.999261 0 -0.0384331 0 0 -1 0 0 -1 
0 0 -1 0 0 -1 0 0 -1 
0 0 -1 0 0 -1 0 0 -1 
0.0384331 0 -0.999261 0.999261 0 -0.0384331 -0.0384331 0 -0.999261 
-0.999261 0 -0.0384331 0 0 -1 0 0 -1 
0 0 -1 0 0 -1 0 0 -1 
0 0 -1 0 -0.693109 -0.720833 0 -0.693109 -0.720833 
0.0277137 -0.692842 -0.720556 0.999261 0 -0.0384331 -0.0384331 0 -0.999261 
-0.999261 0 -0.0384331 0 0 -1 0 0 -1 
0 0 -1 0 0 -1 0 0 -1 
-0.693109 0 -0.720833 0.592441 -0.569655 -0.569655 -0.0384331 0 -0.999261 
-0.999261 0 -0.0384331 0 0 -1 0 0 -1 
0 0 -1 0 0 -1 0 0 -1 
-0.693109 0 -0.720833 0.562259 -0.58475 -0.58475 0.692842 -0.0277137 -0.720556 
0.0384048 -0.0384048 -0.998524 0.0384048 -0.998524 -0.0384048 0.998524 -0.0384048 -0.0384048 
-0.0384331 0 -0.999261 -0.999261 0 -0.0384331 0 0 -1 
0 0 -1 0 0 -1 0 0 -1 
0 0 -1 -0.693109 0 -0.720833 0.693109 0 -0.720833 
0.0384331 0 -0.999261 0.999261 0 -0.0384331 -0.0277137 -0.692842 -0.720556 
-0.999261 0 -0.0384331 0 -0.693109 -0.720833 0 0 -1 
0 0 -1 0 0 -1 0 0 -1 
-0.693109 0 -0.720833 0.693109 0 -0.720833 0 0 -1 
0 0 -1 0.0384331 0 -0.999261 0.999261 0 -0.0384331 
-1 0 0 0.693109 0 -0.720833 0 0 -1 
0 0 -1 0 0 -1 -0.693109 0 -0.720833 
0.693109 0 -0.720833 0.0384331 0 -0.999261 0.999261 0 -0.0384331 
-0.58475 0.562259 -0.58475 -0.999261 0 -0.0384331 0.569655 -0.569655 -0.592441 
0 -0.693109 -0.720833 0 0 -1 0 -0.693109 -0.720833 
-0.569655 -0.569655 -0.592441 0.693109 0 -0.720833 0.0384048 0.0384048 -0.998524 
0.998524 0.0384048 -0.0384048 -0.707107 0 -0.707107 -0.999261 0 -0.0384331 
0 0 -1 0.706845 0.0271864 -0.706845 0.706845 0.706845 -0.0271864 