# vtk DataFile Version 3.0
vtk output
ASCII
DATASET POLYDATA
POINTS 1232 float
87 79 48.0091 87 78.0091 49 86.0091 79 49 
88 79 48.0091 88 78.0091 49 89 79 48.0091 
89 78.0091 49 90 79 48.0091 90 78.0091 49 
91 79 48.0091 91 78.0091 49 92 79 48.0091 
92 78.0091 49 93 79 48.0091 93 78.0091 49 
94 79 48.0091 94 78.0091 49 94.9909 79 49 
87 79.9909 49 88 79.9909 49 89 79.9909 49 
90 79.9909 49 91 79.9909 49 92 79.9909 49 
93 79.9909 49 94 79.9909 49 87 78 49.0091 
87 77.0091 50 86.0091 78 50 88 78 49.0091 
88 77.0091 50 89 78 49.0091 89 77.0091 50 
90 78 49.0091 90 77.0091 50 91 78 49.0091 
91 77.0091 50 92 78 49.0091 92 77.0091 50 
93 78 49.0091 93 77.0091 50 94 78 49.0091 
94 77.0091 50 94.9909 78 50 86.0091 79 50 
94.9909 79 50 87 80 49.0091 86.0091 80 50 
88 80 49.0091 89 80 49.0091 90 80 49.0091 
91 80 49.0091 92 80 49.0091 93 80 49.0091 
94 80 49.0091 95 79.0091 50 95 80 49.0091 
96 80 49.0091 96 79.0091 50 96.9909 80 50 
87 81 49.0091 86.0091 81 50 88 81 49.0091 
89 81 49.0091 90 81 49.0091 91 81 49.0091 
92 81 49.0091 93 81 49.0091 94 81 49.0091 
95 81 49.0091 96 81 49.0091 96.9909 81 50 
87 82 49.0091 86.0091 82 50 88 82 49.0091 
89 82 49.0091 90 82 49.0091 91 82 49.0091 
92 82 49.0091 93 82 49.0091 94 82 49.0091 
95 82 49.0091 96 82 49.0091 96.9909 82 50 
87 83 49.0091 86.0091 83 50 88 83 49.0091 
89 83 49.0091 90 83 49.0091 91 83 49.0091 
92 83 49.0091 93 83 49.0091 94 83 49.0091 
95 83 49.0091 95.9909 83 50 96 82.9909 50 
87 83.9909 50 88 83.9909 50 89 83.9909 50 
90 83.9909 50 90.0091 84 50 91 84 49.0091 
92 84 49.0091 92.9909 84 50 93 83.9909 50 
94 83.9909 50 95 83.9909 50 91 85 49.0091 
90.0091 85 50 91.9909 85 50 92 84.9909 50 
91 85.9909 50 87 77.0091 51 86.0091 78 51 
88 77.0091 51 89 77.0091 51 90 77.0091 51 
91 77.0091 51 92 77.0091 51 93 77.0091 51 
94 77.0091 51 94.9909 78 51 86.0091 79 51 
94.9909 79 51 86.0091 80 51 95 79.0091 51 
96 79.0091 51 96.9909 80 51 86.0091 81 51 
96.9909 81 51 86.0091 82 51 96.9909 82 51 
86.0091 83 51 95.9909 83 51 96 82.9909 51 
87 83.9909 51 88 83.9909 51 89 83.9909 51 
90 84 50.0091 89.0091 84 51 92.9909 84 51 
93 83.9909 51 94 83.9909 51 95 83.9909 51 
90 84.9909 51 90.0091 85 51 92 85 50.0091 
92.9909 85 51 91 85.9909 51 92 85.9909 51 
87 78 51.9909 88 78 51.9909 88.0091 78 52 
89 77.0091 52 90 77.0091 52 91 77.0091 52 
92 77.0091 52 93 77.0091 52 94 77.0091 52 
94.9909 78 52 87 79 51.9909 87.0091 79 52 
88 78.0091 52 94.9909 79 52 87 79.0091 52 
86.0091 80 52 95 79.0091 52 96 79.0091 52 
96.9909 80 52 86.0091 81 52 96.9909 81 52 
86.0091 82 52 96.9909 82 52 86.0091 83 52 
96 83 51.0091 96.9909 83 52 87 84 51.0091 
86.0091 84 52 88 84 51.0091 89 84 51.0091 
93 84 51.0091 94 84 51.0091 95 84 51.0091 
96 84 51.0091 96.9909 84 52 87 85 51.0091 
86.0091 85 52 88 85 51.0091 89 85 51.0091 
90 85 51.0091 93 85 51.0091 94 85 51.0091 
95 85 51.0091 95.9909 85 52 96 84.9909 52 
87 85.9909 52 88 85.9909 52 89 85.9909 52 
90 85.9909 52 91 86 51.0091 90.0091 86 52 
92 86 51.0091 93 86 51.0091 94 86 51.0091 
94.9909 86 52 95 85.9909 52 91 87 51.0091 
90.0091 87 52 92 87 51.0091 93 87 51.0091 
93.9909 87 52 94 86.9909 52 91 87.9909 52 
92 87.9909 52 93 87.9909 52 89 77.0091 53 
88.0091 78 53 90 77.0091 53 91 77.0091 53 
92 77.0091 53 93 77.0091 53 94 78 52.9909 
93.9909 78 53 88 78.0091 53 87.0091 79 53 
94 78.0091 53 94.9909 79 53 87 79.0091 53 
86.0091 80 53 95 79.0091 53 96 79.0091 53 
96.9909 80 53 86.0091 81 53 96.9909 81 53 
86.0091 82 53 96.9909 82 53 86.0091 83 53 
96.9909 83 53 86.0091 84 53 96.9909 84 53 
86.0091 85 53 95.9909 85 53 96 84.9909 53 
87 85.9909 53 88 85.9909 53 89 85.9909 53 
90 86 52.0091 89.0091 86 53 94.9909 86 53 
95 85.9909 53 90 86.9909 53 90.0091 87 53 
94 87 52.0091 94.9909 87 53 91 87.9909 53 
92 87.9909 53 93 87.9909 53 94 87.9909 53 
89 77.0091 54 88.0091 78 54 90 77.0091 54 
91 78 53.9909 90.9909 78 54 92 78 53.9909 
93 78 53.9909 88 78.0091 54 87.0091 79 54 
91 79 53.9909 90.9909 79 54 92 79 53.9909 
93 79 53.9909 94 79 53.9909 87 79.0091 54 
86.0091 80 54 91 79.0091 54 92 79.0091 54 
93 79.0091 54 94 79.0091 54 95 79.0091 54 
96 79.0091 54 96.9909 80 54 86.0091 81 54 
96.9909 81 54 86.0091 82 54 96.9909 82 54 
86.0091 83 54 96.9909 83 54 86.0091 84 54 
96.9909 84 54 86.0091 85 54 96 85 53.0091 
96.9909 85 54 87 86 53.0091 86.0091 86 54 
88 86 53.0091 89 86 53.0091 95 86 53.0091 
96 86 53.0091 96.9909 86 54 87 87 53.0091 
86.0091 87 54 88 87 53.0091 89 87 53.0091 
90 87 53.0091 95 87 53.0091 96 87 53.0091 
96.9909 87 54 87 87.9909 54 88 87.9909 54 
89 87.9909 54 90 87.9909 54 91 87.9909 54 
92 87.9909 54 93 87.9909 54 94 87.9909 54 
95 88 53.0091 94.0091 88 54 96 88 53.0091 
96.9909 88 54 95 89 53.0091 94.0091 89 54 
95.9909 89 54 96 88.9909 54 95 89.9909 54 
89 77.0091 55 88.0091 78 55 90 78 54.9909 
89.9909 78 55 88 78.0091 55 87.0091 79 55 
90 78.0091 55 90.9909 79 55 86 80 54.0091 
86 79.0091 55 85.0091 80 55 87 79.0091 55 
91 79.0091 55 92 79.0091 55 93 79.0091 55 
94 79.0091 55 95 79.0091 55 96 79.0091 55 
96.9909 80 55 86 81 54.0091 85.0091 81 55 
96.9909 81 55 86 81.9909 55 86.0091 82 55 
96.9909 82 55 86.0091 83 55 96.9909 83 55 
86.0091 84 55 96.9909 84 55 86.0091 85 55 
96.9909 85 55 86.0091 86 55 96.9909 86 55 
86.0091 87 55 96.9909 87 55 87 87.9909 55 
88 87.9909 55 89 87.9909 55 90 87.9909 55 
91 87.9909 55 92 87.9909 55 93 87.9909 55 
94 88 54.0091 93.0091 88 55 96.9909 88 55 
94 89 54.0091 93.0091 89 55 95.9909 89 55 
96 88.9909 55 94 89.9909 55 95 89.9909 55 
89 78 55.9909 88 79 55.9909 89 79 55.9909 
90 79 55.9909 86 80 55.9909 86.0091 80 56 
87 79.0091 56 88 79.0091 56 89 79.0091 56 
90 79.0091 56 91 79.0091 56 92 79.0091 56 
93 79.0091 56 94 79.0091 56 95 79.0091 56 
96 79.0091 56 96.9909 80 56 86 80.0091 56 
85.0091 81 56 96.9909 81 56 86 81.9909 56 
86.0091 82 56 96.9909 82 56 86.0091 83 56 
96.9909 83 56 86.0091 84 56 96.9909 84 56 
86.0091 85 56 96.9909 85 56 86.0091 86 56 
96.9909 86 56 86.0091 87 56 96.9909 87 56 
87 88 55.0091 86.0091 88 56 88 88 55.0091 
89 88 55.0091 90 88 55.0091 91 88 55.0091 
92 88 55.0091 93 88 55.0091 96.9909 88 56 
87 89 55.0091 86.0091 89 56 88 89 55.0091 
89 89 55.0091 90 89 55.0091 91 89 55.0091 
92 89 55.0091 93 89 55.0091 96 89 55.0091 
96.9909 89 56 87 89.9909 56 88 89.9909 56 
89 89.9909 56 90 89.9909 56 91 89.9909 56 
92 89.9909 56 93 89.9909 56 94 89.9909 56 
95 90 55.0091 94.0091 90 56 96 90 55.0091 
96.9909 90 56 95 91 55.0091 94.0091 91 56 
95.9909 91 56 96 90.9909 56 95 91.9909 56 
87 79.0091 57 86.0091 80 57 88 79.0091 57 
89 79.0091 57 90 79.0091 57 91 79.0091 57 
92 79.0091 57 93 79.0091 57 94 79.0091 57 
95 79.0091 57 96 79.0091 57 96.9909 80 57 
86 80.0091 57 85.0091 81 57 96.9909 81 57 
86 81.9909 57 86.0091 82 57 96.9909 82 57 
86.0091 83 57 96.9909 83 57 86.0091 84 57 
96.9909 84 57 86.0091 85 57 96.9909 85 57 
86.0091 86 57 96.9909 86 57 86.0091 87 57 
96.9909 87 57 86.0091 88 57 96.9909 88 57 
86.0091 89 57 96.9909 89 57 87 89.9909 57 
88 90 56.0091 87.0091 90 57 88.9909 90 57 
89 89.9909 57 90 89.9909 57 91 89.9909 57 
92 89.9909 57 93 89.9909 57 94 90 56.0091 
93.0091 90 57 96.9909 90 57 88 90.9909 57 
94 90.9909 57 94.0091 91 57 95.9909 91 57 
96 90.9909 57 95 91.9909 57 87 79.0091 58 
86.0091 80 58 88 79.0091 58 89 79.0091 58 
90 79.0091 58 91 80 57.9909 90.9909 80 58 
92 80 57.9909 93 80 57.9909 94 80 57.9909 
94.0091 80 58 95 79.0091 58 96 79.0091 58 
96.9909 80 58 86 80.0091 58 85.0091 81 58 
91 81 57.9909 90.9909 81 58 92 81 57.9909 
93 81 57.9909 93.0091 81 58 94 80.0091 58 
96.9909 81 58 86 81.9909 58 86.0091 82 58 
91 81.0091 58 92 81.0091 58 93 81.0091 58 
96.9909 82 58 86.0091 83 58 96.9909 83 58 
86.0091 84 58 96.9909 84 58 86.0091 85 58 
96.9909 85 58 86.0091 86 58 96.9909 86 58 
86.0091 87 58 96.9909 87 58 86.0091 88 58 
96.9909 88 58 86 89 57.0091 86 88.0091 58 
85.0091 89 58 96.9909 89 58 86 89.9909 58 
87 90 57.0091 86.0091 90 58 89 90 57.0091 
90 90 57.0091 91 90 57.0091 92 90 57.0091 
93 90 57.0091 96.9909 90 58 87 91 57.0091 
86.0091 91 58 88 91 57.0091 89 91 57.0091 
90 91 57.0091 91 91 57.0091 92 91 57.0091 
93 91 57.0091 94 91 57.0091 95.9909 91 58 
96 90.9909 58 87 91.9909 58 88 91.9909 58 
89 91.9909 58 90 91.9909 58 91 91.9909 58 
92 91.9909 58 93 91.9909 58 94 91.9909 58 
95 91.9909 58 87 79.0091 59 86.0091 80 59 
88 79.0091 59 89 79.0091 59 90 79.0091 59 
90.9909 80 59 95 79.0091 59 94.0091 80 59 
96 80 58.9909 95.9909 80 59 86 81 58.9909 
86.0091 81 59 90.9909 81 59 94 80.0091 59 
93.0091 81 59 96 80.0091 59 96.9909 81 59 
86 81.0091 59 85.0091 82 59 86 82 58.0091 
91 81.0091 59 92 81.0091 59 93 81.0091 59 
96.9909 82 59 86 83 58.0091 85.0091 83 59 
96.9909 83 59 86 83.9909 59 86.0091 84 59 
96.9909 84 59 86.0091 85 59 96.9909 85 59 
86.0091 86 59 96.9909 86 59 86.0091 87 59 
96.9909 87 59 86.0091 88 59 96.9909 88 59 
86 88.0091 59 85.0091 89 59 96.9909 89 59 
86 89.9909 59 86.0091 90 59 96.9909 90 59 
86.0091 91 59 95.9909 91 59 96 90.9909 59 
87 91.9909 59 88 91.9909 59 89 91.9909 59 
90 91.9909 59 91 91.9909 59 92 91.9909 59 
93 91.9909 59 94 91.9909 59 95 91.9909 59 
87 80 59.9909 88 80 59.9909 88.0091 80 60 
89 79.0091 60 90 79.0091 60 90.9909 80 60 
95 80 59.9909 87 81 59.9909 87.0091 81 60 
88 80.0091 60 90.9909 81 60 94 81 59.9909 
95 81 59.9909 96 81 59.9909 86 82 59.9909 
86.0091 82 60 87 81.0091 60 91 81.0091 60 
92 81.0091 60 93 81.0091 60 94 81.0091 60 
95 81.0091 60 96 81.0091 60 96.9909 82 60 
86 82.0091 60 85.0091 83 60 96.9909 83 60 
86 83.9909 60 86.0091 84 60 96.9909 84 60 
86.0091 85 60 96.9909 85 60 86.0091 86 60 
96.9909 86 60 86.0091 87 60 96.9909 87 60 
86.0091 88 60 96.9909 88 60 86 88.0091 60 
85.0091 89 60 96.9909 89 60 86 89.9909 60 
86.0091 90 60 96.9909 90 60 86.0091 91 60 
95.9909 91 60 96 90.9909 60 87 91.9909 60 
88 91.9909 60 89 91.9909 60 90 91.9909 60 
91 91.9909 60 92 91.9909 60 93 91.9909 60 
94 91.9909 60 95 91.9909 60 89 79.0091 61 
88.0091 80 61 90 79.0091 61 90.9909 80 61 
88 80.0091 61 87.0091 81 61 91 80.0091 61 
91 81 60.0091 92 81 60.0091 92 80.0091 61 
[...]
POINT_DATA 1232
SCALARS scalars float
LOOKUP_TABLE default
1 1 1 1 1 1 1 1 1 
1 1 1 1 1 1 1 1 1 
1 1 1 1 1 1 1 1 1 
1 1 1 1 1 1 1 1 1 
1 1 1 1 1 1 1 1 1 
1 1 1 1 1 1 1 1 1 
1 1 1 1 1 1 1 1 1 
1 1 1 1 1 1 1 1 1 
1 1 1 1 1 1 1 1 1 
1 1 1 1 1 1 1 1 1 
1 1 1 1 1 1 1 1 1 
1 1 1 1 1 1 1 1 1 
1 1 1 1 1 1 1 1 1 
1 1 1 1 1 1 1 1 1 
1 1 1 1 1 1 1 1 1 
1 1 1 1 1 1 1 1 1 
1 1 1 1 1 1 1 1 1 
1 1 1 1 1 1 1 1 1 
1 1 1 1 1 1 1 1 1 
1 1 1 1 1 1 1 1 1 
1 1 1 1 1 1 1 1 1 
1 1 1 1 1 1 1 1 1 
1 1 1 1 1 1 1 1 1 
1 1 1 1 1 1 1 1 1 
1 1 1 1 1 1 1 1 1 
1 1 1 1 1 1 1 1 1 
1 1 1 1 1 1 1 1 1 
1 1 1 1 1 1 1 1 1 
1 1 1 1 1 1 1 1 1 
1 1 1 1 1 1 1 1 1 
1 1 1 1 1 1 1 1 1 
1 1 1 1 1 1 1 1 1 
1 1 1 1 1 1 1 1 1 
1 1 1 1 1 1 1 1 1 
1 1 1 1 1 1 1 1 1 
1 1 1 1 1 1 1 1 1 
1 1 1 1 1 1 1 1 1 
1 1 1 1 1 1 1 1 1 
1 1 1 1 1 1 1 1 1 
1 1 1 1 1 1 1 1 1 
1 1 1 1 1 1 1 1 1 
1 1 1 1 1 1 1 1 1 
1 1 1 1 1 1 1 1 1 
1 1 1 1 1 1 1 1 1 
1 1 1 1 1 1 1 1 1 
1 1 1 1 1 1 1 1 1 
1 1 1 1 1 1 1 1 1 
1 1 1 1 1 1 1 1 1 
1 1 1 1 1 1 1 1 1 
1 1 1 1 1 1 1 1 1 
1 1 1 1 1 1 1 1 1 
1 1 1 1 1 1 1 1 1 
1 1 1 1 1 1 1 1 1 
1 1 1 1 1 1 1 1 1 
1 1 1 1 1 1 1 1 1 
1 1 1 1 1 1 1 1 1 
1 1 1 1 1 1 1 1 1 
1 1 1 1 1 1 1 1 1 
1 1 1 1 1 1 1 1 1 
1 1 1 1 1 1 1 1 1 
1 1 1 1 1 1 1 1 1 
1 1 1 1 1 1 1 1 1 
1 1 1 1 1 1 1 1 1 
1 1 1 1 1 1 1 1 1 
1 1 1 1 1 1 1 1 1 
1 1 1 1 1 1 1 1 1 
1 1 1 1 1 1 1 1 1 
1 1 1 1 1 1 1 1 1 
1 1 1 1 1 1 1 1 1 
1 1 1 1 1 1 1 1 1 
1 1 1 1 1 1 1 1 1 
1 1 1 1 1 1 1 1 1 
1 1 1 1 1 1 1 1 1 
1 1 1 1 1 1 1 1 1 
1 1 1 1 1 1 1 1 1 
1 1 1 1 1 1 1 1 1 
1 1 1 1 1 1 1 1 1 
1 1 1 1 1 1 1 1 1 
1 1 1 1 1 1 1 1 1 
1 1 1 1 1 1 1 1 1 
1 1 1 1 1 1 1 1 1 
1 1 1 1 1 1 1 1 1 
1 1 1 1 1 1 1 1 1 
1 1 1 1 1 1 1 1 1 
1 1 1 1 1 1 1 1 1 
1 1 1 1 1 1 1 1 1 
1 1 1 1 1 1 1 1 1 
1 1 1 1 1 1 1 1 1 
1 1 1 1 1 1 1 1 1 
1 1 1 1 1 1 1 1 1 
1 1 1 1 1 1 1 1 1 
1 1 1 1 1 1 1 1 1 
1 1 1 1 1 1 1 1 1 
1 1 1 1 1 1 1 1 1 
1 1 1 1 1 1 1 1 1 
1 1 1 1 1 1 1 1 1 
1 1 1 1 1 1 1 1 1 
1 1 1 1 1 1 1 1 1 
1 1 1 1 1 1 1 1 1 
1 1 1 1 1 1 1 1 1 
1 1 1 1 1 1 1 1 1 
1 1 1 1 1 1 1 1 1 
1 1 1 1 1 1 1 1 1 
1 1 1 1 1 1 1 1 1 
1 1 1 1 1 1 1 1 1 
1 1 1 1 1 1 1 1 1 
1 1 1 1 1 1 1 1 1 
1 1 1 1 1 1 1 1 1 
1 1 1 1 1 1 1 1 1 
1 1 1 1 1 1 1 1 1 
1 1 1 1 1 1 1 1 1 
1 1 1 1 1 1 1 1 1 
1 1 1 1 1 1 1 1 1 
1 1 1 1 1 1 1 1 1 
1 1 1 1 1 1 1 1 1 
1 1 1 1 1 1 1 1 1 
1 1 1 1 1 1 1 1 1 
1 1 1 1 1 1 1 1 1 
1 1 1 1 1 1 1 1 1 
1 1 1 1 1 1 1 1 1 
1 1 1 1 1 1 1 1 1 
1 1 1 1 1 1 1 1 1 
1 1 1 1 1 1 1 1 1 
1 1 1 1 1 1 1 1 1 
1 1 1 1 1 1 1 1 1 
1 1 1 1 1 1 1 1 1 
1 1 1 1 1 1 1 1 1 
1 1 1 1 1 1 1 1 1 
1 1 1 1 1 1 1 1 1 
1 1 1 1 1 1 1 1 1 
1 1 1 1 1 1 1 1 1 
1 1 1 1 1 1 1 1 1 
1 1 1 1 1 1 1 1 1 
1 1 1 1 1 1 1 1 1 
1 1 1 1 1 1 1 1 1 
1 1 1 1 1 1 1 1 1 
1 1 1 1 1 1 1 1 
NORMALS normals float
-0.00909053 0 -0.999959 -0.00645739 -0.703856 -0.710313 -0.999959 0 -0.00909053 
0 0 -1 0 -0.703871 -0.710328 0 0 -1 
0 -0.703871 -0.710328 0 0 -1 0 -0.703871 -0.710328 
0 0 -1 0 -0.703871 -0.710328 0 0 -1 
0 -0.703871 -0.710328 0 0 -1 0 -0.703871 -0.710328 
0.00909053 0 -0.999959 0.00645739 -0.703856 -0.710313 0.999959 0 -0.00909053 
-0.00645739 0.703856 -0.710313 0 0.703871 -0.710328 0 0.703871 -0.710328 
0 0.703871 -0.710328 0 0.703871 -0.710328 0 0.703871 -0.710328 
0 0.703871 -0.710328 0.00645739 0.703856 -0.710313 -0.00642811 -0.707092 -0.707092 
-0.00909016 -0.999917 -0.00909016 -0.999917 -0.00909016 -0.00909016 0 -0.707107 -0.707107 
0 -0.999959 -0.00909053 0 -0.707107 -0.707107 0 -0.999959 -0.00909053 
0 -0.707107 -0.707107 0 -0.999959 -0.00909053 0 -0.707107 -0.707107 
0 -0.999959 -0.00909053 0 -0.707107 -0.707107 0 -0.999959 -0.00909053 
0 -0.707107 -0.707107 0 -0.999959 -0.00909053 0.00642811 -0.707092 -0.707092 
0.00909016 -0.999917 -0.00909016 0.999917 -0.00909016 -0.00909016 -1 0 0 
0.710328 -0.703871 0 -0.00645739 0.703856 -0.710313 -0.999959 0 -0.00909053 
0 0.703871 -0.710328 0 0.703871 -0.710328 0 0.703871 -0.710328 
0 0.703871 -0.710328 0 0.703871 -0.710328 0 0.703871 -0.710328 
0 0.703871 -0.710328 0.703856 -0.710313 -0.00645739 0 -0.00909053 -0.999959 
0.00909016 -0.00909016 -0.999917 0.00909016 -0.999917 -0.00909016 0.999917 -0.00909016 -0.00909016 
-0.00909053 0 -0.999959 -0.999959 0 -0.00909053 0 0 -1 
0 0 -1 0 0 -1 0 0 -1 
0 0 -1 0 0 -1 0 0 -1 
0 0 -1 0.00909053 0 -0.999959 0.999959 0 -0.00909053 
-0.00909053 0 -0.999959 -0.999959 0 -0.00909053 0 0 -1 
0 0 -1 0 0 -1 0 0 -1 
0 0 -1 0 0 -1 0 0 -1 
0 0 -1 0.00909016 0.00909016 -0.999917 0.999917 0.00909016 -0.00909016 
-0.00909016 0.00909016 -0.999917 -0.999917 0.00909016 -0.00909016 0 0.00909053 -0.999959 
0 0.00909053 -0.999959 0 0.00909053 -0.999959 0 0 -1 
0 0 -1 0 0.00909053 -0.999959 0 0.00909053 -0.999959 
0.00909016 0.00909016 -0.999917 0.707092 0.707092 -0.00642811 0.707092 0.707092 -0.00642811 
-0.00909016 0.999917 -0.00909016 0 0.999959 -0.00909053 0 0.999959 -0.00909053 
-0.573835 0.5791 -0.5791 -0.5791 0.573835 -0.5791 -0.00909053 0 -0.999959 
0.00909016 0.00909016 -0.999917 0.707092 0.707092 -0.00642811 0.703856 0.710313 -0.00645739 
0 0.999959 -0.00909053 0.00909016 0.999917 -0.00909016 0 0.00909053 -0.999959 
-0.999916 0.00917354 -0.00917354 0.573835 0.5791 -0.5791 0.57735 0.57735 -0.57735 
0 0.999959 -0.00909053 -0.00909016 -0.999917 0.00909016 -0.999917 -0.00909016 0.00909016 
0 -0.999959 0.00909053 0 -1 0 0 -1 0 
0 -1 0 0 -1 0 0 -1 0 
0.00909053 -0.999959 0 0.999959 -0.00909053 0 -0.999959 0 0.00909053 
0.710328 -0.703871 0 -1 0 0 0.703871 -0.710328 0 
0.00909053 -0.999959 0 0.999959 -0.00909053 0 -1 0 0 
1 0 0 -1 0 0 0.999959 0.00909053 0 
-0.999959 0.00909053 0 0.5791 0.5791 -0.573835 0.5791 0.5791 -0.573835 
-0.00645739 0.710313 -0.703856 0 0.710328 -0.703871 -0.575585 0.580865 -0.575585 
-0.57735 0.57735 -0.57735 -0.57735 0.57735 -0.57735 0.580865 0.575585 -0.575585 
0.575585 0.580865 -0.575585 0 0.710328 -0.703871 0.00645739 0.710313 -0.703856 
-0.57735 0.57735 -0.57735 -0.5791 0.5791 -0.573835 0.57735 0.57735 -0.57735 
0.707092 0.00642811 -0.707092 -0.00645739 0.710313 -0.703856 0.00642811 0.707092 -0.707092 
-0.00909016 -0.00909016 0.999917 -0.573835 -0.5791 0.5791 -0.5791 -0.5791 0.573835 
-0.00909053 -0.999959 0 0 -1 0 0 -1 0 
0 -1 0 0 -1 0 0.00909016 -0.999917 0.00909016 
0.999917 -0.00909016 0.00909016 -0.5791 -0.573835 0.5791 -0.5791 -0.5791 0.573835 
-0.5791 -0.5791 0.573835 0.710328 -0.703871 0 -0.5791 -0.5791 0.573835 
-0.999959 -0.00909053 0 0.703871 -0.710328 0 0.00909053 -0.999959 0 
0.999959 -0.00909053 0 -1 0 0 1 0 0 
-1 0 0 1 0 0 -1 0 0 
0.5791 0.573835 -0.5791 0.999959 0 -0.00909053 -0.00645739 0.703856 -0.710313 
-0.999959 0 -0.00909053 0 0.703871 -0.710328 -0.575585 0.575585 -0.580865 
0.575585 0.575585 -0.580865 0 0.703871 -0.710328 0 0.703871 -0.710328 
0.00909016 0.00909016 -0.999917 0.999917 0.00909016 -0.00909016 -0.00909016 0.00909016 -0.999917 
-0.999917 0.00909016 -0.00909016 0 0.00909053 -0.999959 0 0.00909053 -0.999959 
-0.573835 0.5791 -0.5791 0.703871 0 -0.710328 0 0 -1 
0.00909016 0.00909016 -0.999917 0.707092 0.707092 -0.00642811 0.707092 0.707092 -0.00642811 
-0.00909016 0.999917 -0.00909016 0 0.999959 -0.00909053 0 0.999959 -0.00909053 
-0.573835 0.5791 -0.5791 -0.00645739 0.703856 -0.710313 -0.5791 0.573835 -0.5791 
0 0.703871 -0.710328 0 0 -1 0.00909016 0.00909016 -0.999917 
0.707092 0.707092 -0.00642811 0.707092 0.707092 -0.00642811 -0.00909016 0.00909016 -0.999917 
-0.999917 0.00909016 -0.00909016 0 0.00909053 -0.999959 0.00909016 0.00909016 -0.999917 
0.57735 0.57735 -0.57735 0.57735 0.57735 -0.57735 -0.00909016 0.999917 -0.00909016 
0 0.999959 -0.00909053 0.00909016 0.999917 -0.00909016 -0.00909053 -0.999959 0 
-0.707107 -0.707107 0 0 -1 0 0 -0.999959 0.00909053 
0 -0.999959 0.00909053 0.00909016 -0.999917 0.00909016 0.57735 -0.57735 0.57735 
0.57735 -0.57735 0.57735 -0.707107 -0.707107 0 -0.707107 -0.707107 0 
0.57735 -0.57735 0.57735 0.707092 -0.707092 0.00642811 -0.707107 -0.707107 0 
-0.999959 -0.00909053 0 0.703871 -0.710328 0 0.00909053 -0.999959 0 
0.999959 -0.00909053 0 -1 0 0 1 0 0 
-1 0 0 1 0 0 -1 0 0 
1 0 0 -1 0 0 0.999959 0.00909053 0 
-0.999959 0.00909053 0 0.5791 0.5791 -0.573835 0.5791 0.5791 -0.573835 
-0.00645739 0.710313 -0.703856 0 0.710328 -0.703871 -0.575585 0.580865 -0.575585 
-0.57735 0.57735 -0.57735 -0.57735 0.57735 -0.57735 0.580865 0.575585 -0.575585 
0.5791 0.5791 -0.573835 -0.57735 0.57735 -0.57735 -0.5791 0.5791 -0.573835 
0.57735 0.57735 -0.57735 0.707092 0.00642811 -0.707092 -0.00909053 0.999959 0 
0 1 0 0 1 0 0.00909016 0.999917 -0.00909016 
-0.00909053 -0.999959 0 -0.707107 -0.707107 0 0.00909016 -0.999917 0.00909016 
0.703856 -0.00645739 0.710313 0.707092 -0.00642811 0.707092 0 -0.00909053 0.999959 
0.00909016 -0.00909016 0.999917 -0.707107 -0.707107 0 -0.707107 -0.707107 0 
0.575585 -0.575585 0.580865 0.580865 -0.575585 0.575585 0 -0.703871 0.710328 
0 -0.703871 0.710328 0.00642811 -0.707092 0.707092 -0.707107 -0.707107 0 
-0.710313 -0.00645739 -0.703856 0.575585 -0.580865 0.575585 0 -0.710328 0.703871 
0 -0.710328 0.703871 0 -0.710328 0.703871 0 -1 0 
0.00909053 -0.999959 0 0.999959 -0.00909053 0 -0.710328 0 -0.703871 
1 0 0 -1 0 0 1 0 0 
-1 0 0 1 0 0 -1 0 0 
1 0 0 -1 0 0 0.5791 0.573835 -0.5791 
0.999959 0 -0.00909053 -0.00645739 0.703856 -0.710313 -0.999959 0 -0.00909053 
0 0.703871 -0.710328 -0.575585 0.575585 -0.580865 0.575585 0.575585 -0.580865 
0.00909053 0 -0.999959 0.999959 0 -0.00909053 -0.00909016 0.00909016 -0.999917 
-0.999917 0.00909016 -0.00909016 0 0.00909053 -0.999959 0 0.00909053 -0.999959 
-0.573835 0.5791 -0.5791 0.703871 0 -0.710328 0.00909053 0 -0.999959 
0.999959 0 -0.00909053 -0.00909016 0.999917 -0.00909016 0 0.999959 -0.00909053 
0 0.999959 -0.00909053 0 0.999959 -0.00909053 0 1 0 
0 1 0 0 1 0 -0.575585 0.580865 -0.575585 
-0.00909053 0 -0.999959 -0.5791 0.573835 -0.5791 0.00909016 0.00909016 -0.999917 
0.999917 0.00909016 -0.00909016 0 0.00909053 -0.999959 -0.703856 0.00645739 -0.710313 
0.703856 0.710313 -0.00645739 0.707092 0.707092 -0.00642811 0 0.999959 -0.00909053 
0 -0.999959 0.00909053 -0.703856 -0.710313 0.00645739 0.57735 -0.57735 0.57735 
0.573835 -0.5791 0.5791 -0.707092 -0.707092 0.00642811 -0.707092 -0.707092 0.00642811 
0.57735 -0.57735 0.57735 0.707092 -0.707092 0.00642811 -0.710313 -0.00645739 -0.703856 
-0.00909053 -0.999959 0 -0.999959 -0.00909053 0 -0.703871 -0.710328 0 
0.703871 -0.710328 0 0 -1 0 0 -1 0 
0 -1 0 0 -1 0 0.00909053 -0.999959 0 
0.999959 -0.00909053 0 -0.707092 0.00642811 -0.707092 -0.999917 0.00909016 -0.00909016 
1 0 0 -0.707092 0.707092 -0.00642811 -0.710328 0.703871 0 
1 0 0 -1 0 0 1 0 0 
-1 0 0 1 0 0 -1 0 0 
1 0 0 -1 0 0 1 0 0 
-0.999959 0.00909053 0 1 0 0 -0.00645739 0.710313 -0.703856 
0 0.710328 -0.703871 0 0.710328 -0.703871 0 0.710328 -0.703871 
0 0.710328 -0.703871 0 0.710328 -0.703871 -0.575585 0.580865 -0.575585 
-0.5791 0.573835 -0.5791 -0.5791 0.573835 -0.5791 0.999959 0.00909053 0 
-0.707092 0.00642811 -0.707092 -0.707092 0.00642811 -0.707092 0.5791 0.5791 -0.573835 
0.5791 0.5791 -0.573835 -0.00909016 0.999917 -0.00909016 0.00645739 0.710313 -0.703856 
0 -0.00909053 0.999959 -0.00642811 -0.707092 0.707092 0 -0.703871 0.710328 
0.00642811 -0.707092 0.707092 -0.5791 -0.5791 0.573835 -0.5791 -0.5791 0.573835 
-0.00909053 -0.999959 0 0 -0.710328 0.703871 0 -0.710328 0.703871 
0 -0.710328 0.703871 0 -1 0 0 -1 0 
0 -1 0 0 -1 0 0 -1 0 
0.00909053 -0.999959 0 0.999959 -0.00909053 0 -0.580865 -0.575585 0.575585 
-1 0 0 1 0 0 -0.710328 0.703871 0 
-0.710328 0.703871 0 1 0 0 -1 0 0 
1 0 0 -1 0 0 1 0 0 
-1 0 0 1 0 0 -1 0 0 
1 0 0 -1 0 0 1 0 0 
-0.00645739 0.703856 -0.710313 -0.999959 0 -0.00909053 0 0.703871 -0.710328 
0 0.703871 -0.710328 0 0.703871 -0.710328 0 0.703871 -0.710328 
0 0.703871 -0.710328 -0.575585 0.575585 -0.580865 1 0 0 
-0.00909016 0.00909016 -0.999917 -0.999917 0.00909016 -0.00909016 0 0.00909053 -0.999959 
0 0.00909053 -0.999959 0 0.00909053 -0.999959 0 0.00909053 -0.999959 
0 0.00909053 -0.999959 -0.703856 0.00645739 -0.710313 0.5791 0.573835 -0.5791 
0.999959 0 -0.00909053 -0.00909016 0.999917 -0.00909016 0 0.707107 -0.707107 
0 0.999959 -0.00909053 0 0.999959 -0.00909053 0 0.999959 -0.00909053 
0 0.999959 -0.00909053 0 0.999959 -0.00909053 -0.575585 0.580865 -0.575585 
-0.00645739 0.703856 -0.710313 -0.5791 0.573835 -0.5791 0.00909016 0.00909016 -0.999917 
0.999917 0.00909016 -0.00909016 0 0.00909053 -0.999959 -0.999916 0.00917354 -0.00917354 
0.703856 0.710313 -0.00645739 0.707092 0.707092 -0.00642811 0 0.999959 -0.00909053 
-0.00909053 -0.999959 0 -0.707107 -0.707107 0 0 -1 0 
0 -1 0 0 -1 0 0 -0.999959 0.00909053 
0 -0.999959 0.00909053 0 -0.999959 0.00909053 0 -0.999959 0.00909053 
0 -1 0 0.00909053 -0.999959 0 0.999959 -0.00909053 0 
-0.710328 -0.703871 0 -1 0 0 1 0 0 
-0.710328 0.703871 0 -0.710328 0.703871 0 1 0 0 
-1 0 0 1 0 0 -1 0 0 
1 0 0 -1 0 0 1 0 0 
-1 0 0 1 0 0 -1 0 0 
1 0 0 -1 0 0 1 0 0 
-0.710313 0.00645739 -0.703856 1 0 0 -0.5791 0.5791 -0.573835 
0 0.707107 -0.707107 -0.573835 0.5791 -0.5791 0.573835 0.5791 -0.5791 
0.575585 0.580865 -0.575585 0 0.710328 -0.703871 0 0.710328 -0.703871 
0 0.710328 -0.703871 -0.575585 0.580865 -0.575585 -0.57735 0.57735 -0.57735 
-0.57735 0.57735 -0.57735 0.999959 0.00909053 0 0 0.707107 -0.707107 
-0.57735 0.57735 -0.57735 -0.575585 0.580865 -0.575585 0.703871 0.710328 0 
0.707107 0.707107 0 0 1 0 -0.00909053 -0.999959 0 
-0.707107 -0.707107 0 0 -1 0 0 -1 0 
0.00909053 -0.999959 0 0.703856 -0.00645739 0.710313 0.710313 -0.00645739 0.703856 
0 -0.00909053 0.999959 0 -0.00909053 0.999959 -0.573835 -0.5791 0.5791 
-0.5791 -0.5791 0.573835 -0.00909053 -0.999959 0 0.00909016 -0.999917 0.00909016 
0.999917 -0.00909016 0.00909016 -0.710313 -0.703856 0.00645739 -0.999959 0 0.00909053 
0.575585 -0.575585 0.580865 0.580865 -0.575585 0.575585 0 -0.703871 0.710328 
-0.575585 -0.575585 0.580865 -0.5791 -0.5791 0.573835 -0.5791 -0.5791 0.573835 
1 0 0 -0.582631 0.577334 -0.572037 -0.580865 0.575585 -0.575585 
0.575585 -0.580865 0.575585 0 -0.710328 0.703871 -0.575585 -0.580865 0.575585 
1 0 0 -0.710328 0 -0.703871 1 0 0 
-1 0 0 1 0 0 -1 0 0 
1 0 0 -1 0 0 1 0 0 
-1 0 0 1 0 0 -0.710328 -0.703871 0 
1 0 0 -0.707107 0 -0.707107 -0.710313 -0.703856 -0.00645739 
-0.999959 0 -0.00909053 1 0 0 -0.710313 0.703856 -0.00645739 
-0.5791 0.573835 -0.5791 -0.710313 0.703856 -0.00645739 0.575585 0.575585 -0.580865 
0 0.703871 -0.710328 0 0.703871 -0.710328 0 0.703871 -0.710328 
-0.575585 0.575585 -0.580865 0.999959 0.00909053 0 -0.00909016 0.00909016 -0.999917 
-0.999917 0.00909016 -0.00909016 0 0.707107 -0.707107 0 0.00909053 -0.999959 
0 0.00909053 -0.999959 0 0.00909053 -0.999959 0 0.00909053 -0.999959 
0 0.00909053 -0.999959 -0.573835 0.5791 -0.5791 0.707107 0.707107 0 
0.707107 0.707107 0 -0.00909016 0.999917 -0.00909016 0 0.999959 -0.00909053 
0 0.999959 -0.00909053 0 0.999959 -0.00909053 0 0.999959 -0.00909053 
0 0.999959 -0.00909053 0 0.999959 -0.00909053 0 0.999959 -0.00909053 
0.00909053 0.999959 0 -0.00909016 -0.999917 0.00909016 -0.999917 -0.00909016 0.00909016 
0 -0.999959 0.00909053 0 -1 0 0.00909053 -0.999959 0 
0.999959 -0.00909053 0 0 -0.999959 0.00909053 -0.703856 -0.710313 0.00645739 
0.57735 -0.57735 0.57735 0.573835 -0.5791 0.5791 -0.5791 -0.573835 0.5791 
-0.5791 -0.573835 0.5791 0.710328 -0.703871 0 -0.707092 -0.707092 0.00642811 
-0.707092 -0.707092 0.00642811 0.57735 -0.57735 0.57735 0.999917 -0.00909016 0.00909016 
-0.5791 -0.5791 0.573835 -0.999959 -0.00909053 0 -0.582631 0.572037 -0.577334 
0.703871 -0.710328 0 0 -1 0 -0.703871 -0.710328 0 
1 0 0 -0.707092 0.00642811 -0.707092 -0.999917 0.00909016 -0.00909016 
1 0 0 -0.707092 0.707092 -0.00642811 -0.710328 0.703871 0 
1 0 0 -1 0 0 1 0 0 
-1 0 0 1 0 0 -1 0 0 
1 0 0 -0.710328 -0.703871 0 1 0 0 
-0.710328 -0.703871 0 -1 0 0 1 0 0 
-0.710328 0.703871 0 -0.710328 0.703871 0 0.999959 0.00909053 0 
-0.999959 0.00909053 0 0.707107 0.707107 0 0.707107 0.707107 0 
-0.00909053 0.999959 0 0 1 0 0 1 0 
0 1 0 0 1 0 0 1 0 
0 1 0 0 1 0 0.00909053 0.999959 0 
-0.00909016 -0.00909016 0.999917 -0.573835 -0.5791 0.5791 -0.5791 -0.5791 0.573835 
-0.00909053 -0.999959 0 0.00909053 -0.999959 0 0.999959 -0.00909053 0 
0 -0.00909053 0.999959 -0.5791 -0.573835 0.5791 -0.5791 -0.5791 0.573835 
-0.5791 -0.5791 0.573835 0.580865 -0.575585 -0.575585 -0.00909016 -0.999917 0.00909016 
0 -0.703871 0.710328 0.00642811 -0.707092 0.707092 -0.5791 -0.5791 0.573835 
-0.5791 -0.5791 0.573835 -0.5791 -0.5791 0.573835 0.575585 -0.580865 -0.575585 
0 -0.710328 -0.703871 0 -0.710328 -0.703871 0 -1 0 
0 -0.710328 0.703871 0.00645739 -0.710313 0.703856 0.999959 -0.00909053 0 
-0.580865 -0.575585 0.575585 -1 0 0 1 0 0 
-0.580865 0.575585 -0.575585 -0.580865 0.575585 -0.575585 1 0 0 
-0.710328 0 -0.703871 1 0 0 -1 0 0 
1 0 0 -1 0 0 1 0 0 
-0.710328 -0.703871 0 1 0 0 -0.710313 -0.703856 0.00645739 
-0.999959 0 0.00909053 1 0 0 -0.710313 0.703856 0.00645739 
-0.710328 0.703871 0 0.999959 0.00909053 0 -0.999917 0.00909016 0.00909016 
0.707107 0.707107 0 0.707107 0.707107 0 -0.00909016 0.999917 0.00909016 
0 0.999959 0.00909053 0 1 0 0 1 0 
0 1 0 0 1 0 0 1 0 
0 1 0 0.00909053 0.999959 0 -0.00909053 -0.999959 0 
-0.707107 -0.707107 0 0.00909053 -0.999959 0 0.5791 -0.5791 -0.573835 
-0.707107 -0.707107 0 -0.707107 -0.707107 0 0.573835 -0.5791 -0.5791 
0.573835 -0.5791 -0.5791 0 -0.707107 -0.707107 0 -0.707107 -0.707107 
0 -0.707107 -0.707107 0 -0.707107 -0.707107 0.00909016 -0.999917 -0.00909016 
0.00642811 -0.707092 -0.707092 0.707092 -0.707092 -0.00642811 -0.707107 -0.707107 0 
-0.707107 -0.707107 0 0.703871 -0.710328 0 0.00909053 -0.999959 0 
0.999959 -0.00909053 0 -0.707092 -0.707092 0.00642811 -0.999917 -0.00909016 0.00909016 
1 0 0 -0.580865 0.575585 -0.575585 -1 0 0 
1 0 0 -0.707092 0.00642811 -0.707092 -0.999917 0.00909016 -0.00909016 
1 0 0 -0.707092 0.707092 -0.00642811 -0.710328 0.703871 0 
1 0 0 -1 0 0 1 0 0 
-1 0 0 1 0 0 -0.707107 0 0.707107 
-0.710328 0 0.703871 1 0 0 -0.999917 0.00909016 0.00909016 
0.999959 0.00909053 0 -0.00642811 0.707092 0.707092 -0.00642811 0.707092 0.707092 
-0.573835 0.5791 0.5791 -0.573835 0.5791 0.5791 -0.5791 0.5791 0.573835 
0.707107 0.707107 0 0.707107 0.707107 0 -0.00909053 0.999959 0 
0 1 0 0 1 0 0 1 0 
0 1 0 0 1 0 0.00909053 0.999959 0 
-0.00909053 -0.999959 0 -0.707107 -0.707107 0 0 -1 0 
0.573835 -0.5791 -0.5791 0 -0.999959 -0.00909053 0 -0.707107 -0.707107 
0 -0.999959 -0.00909053 0 -0.707107 -0.707107 0 -0.999959 -0.00909053 
0.00645739 -0.710313 -0.703856 0.00909053 -0.999959 0 0.999959 -0.00909053 0 
-0.707092 -0.707092 0.00642811 -0.707092 -0.707092 0.00642811 0.710328 -0.703871 0 
-0.707107 -0.707107 0 -0.999959 -0.00909053 0 0.703871 -0.710328 0 
0.00909053 -0.999959 0 0.999959 -0.00909053 0 -0.707092 -0.00642811 0.707092 
-0.710328 0 0.703871 1 0 0 -0.580865 -0.575585 0.575585 
-0.580865 -0.575585 0.575585 1 0 0 -0.580865 -0.575585 0.575585 
-1 0 0 1 0 0 -0.580865 0.575585 -0.575585 
-0.580865 0.575585 -0.575585 1 0 0 -0.710328 0 -0.703871 
1 0 0 -1 0 0 1 0 0 
-0.999959 0.00909053 0 1 0 0 -0.00645739 0.710313 0.703856 
-0.00642811 0.707092 0.707092 -0.703871 0.710328 0 -0.703856 0.710313 0.00645739 
-0.710328 0.703871 0 0.999959 0.00909053 0 -0.999959 0.00909053 0 
0.707107 0.707107 0 0.707107 0.707107 0 -0.00909053 0.999959 0 
0 1 0 0 1 0 0 1 0 
0 1 0 0 1 0 0.00909053 0.999959 0 
-0.00909016 -0.999917 0.00909016 -0.999917 -0.00909016 0.00909016 0 -0.999959 0.00909053 
0 -0.999959 0.00909053 0 -0.999959 0.00909053 0.00909016 -0.999917 0.00909016 
0.5791 -0.5791 0.573835 0.57735 -0.57735 0.57735 -0.57735 -0.57735 0.57735 
-0.5791 -0.573835 0.5791 0.57735 -0.57735 0.57735 0.707092 -0.707092 0.00642811 
-0.00909016 -0.999917 0.00909016 -0.999917 -0.00909016 0.00909016 -0.573835 -0.5791 0.5791 
0.703871 -0.710328 0 0.00909053 -0.999959 0 0.999959 -0.00909053 0 
-0.999959 0 0.00909053 1 0 0 -0.710328 -0.703871 0 
1 0 0 -0.707092 -0.707092 0.00642811 -0.999917 -0.00909016 0.00909016 
1 0 0 -0.580865 0.575585 -0.575585 -1 0 0 
1 0 0 -0.707092 0.00642811 -0.707092 -0.999917 0.00909016 -0.00909016 
1 0 0 -0.707092 0.707092 -0.00642811 -0.710328 0.703871 0 
1 0 0 -0.710313 0.00645739 -0.703856 1 0 0 