# vtk DataFile Version 3.0
vtk output
ASCII
DATASET POLYDATA
POINTS 1136 float
87 64 27.0087 87 63.0087 28 86.0087 64 28 
88 64 27.0087 88 63.0087 28 89 64 27.0087 
89 63.0087 28 90 64 27.0087 90 63.0087 28 
91 64 27.0087 91 63.0087 28 92 64 27.0087 
92 63.0087 28 92.9913 64 28 87 65 27.0087 
86.0087 65 28 88 65 27.0087 89 65 27.0087 
90 65 27.0087 91 65 27.0087 91.9913 65 28 
92 64.9913 28 87 65.9913 28 88 65.9913 28 
88.0087 66 28 89 66 27.0087 90 66 27.0087 
90.9913 66 28 91 65.9913 28 89 67 27.0087 
88.0087 67 28 90 67 27.0087 90.9913 67 28 
89 68 27.0087 88.0087 68 28 90 68 27.0087 
90.9913 68 28 89 69 27.0087 88.0087 69 28 
89.9913 69 28 90 68.9913 28 89 69.9913 28 
86 64 28.0087 86 63.0087 29 85.0087 64 29 
87 63.0087 29 88 63.0087 29 89 63.0087 29 
90 63.0087 29 91 63.0087 29 92 63.0087 29 
92.9913 64 29 86 64.9913 29 86.0087 65 29 
92 65 28.0087 92.9913 65 29 87 65.9913 29 
88 66 28.0087 87.0087 66 29 90.9913 66 29 
91 65.9913 29 92 65.9913 29 88 67 28.0087 
87.0087 67 29 90.9913 67 29 88 68 28.0087 
87.0087 68 29 90.9913 68 29 88 68.9913 29 
88.0087 69 29 90 69 28.0087 90.9913 69 29 
89 69.9913 29 90 69.9913 29 89 75 28.0087 
89 74.0087 29 88.0087 75 29 89.9913 75 29 
89 75.9913 29 86 64 29.9913 86.0087 64 30 
87 63.0087 30 88 63.0087 30 89 63.0087 30 
90 63.0087 30 91 63.0087 30 92 63.0087 30 
93 64 29.0087 93 63.0087 30 94 64 29.0087 
94 63.0087 30 95 64 29.0087 95 63.0087 30 
96 64 29.0087 96 63.0087 30 96.9913 64 30 
86.0087 65 30 93 65 29.0087 94 65 29.0087 
95 65 29.0087 96 65 29.0087 96.9913 65 30 
87 66 29.0087 86.0087 66 30 91 66 29.0087 
92 66 29.0087 93 66 29.0087 94 66 29.0087 
95 66 29.0087 96 66 29.0087 96.9913 66 30 
86 67 29.0087 86 66.0087 30 85.0087 67 30 
87 67 29.0087 91 67 29.0087 92 67 29.0087 
93 67 29.0087 94 67 29.0087 95 67 29.0087 
95.9913 67 30 96 66.9913 30 86 67.9913 30 
86.0087 68 30 87 68 29.0087 91 68 29.0087 
92 68 29.0087 92.9913 68 30 93 67.9913 30 
94 67.9913 30 95 67.9913 30 87 69 29.0087 
86.0087 69 30 88 69 29.0087 91 69 29.0087 
91.9913 69 30 92 68.9913 30 87 69.9913 30 
88 69.9913 30 89 70 29.0087 88.0087 70 30 
90 70 29.0087 90.9913 70 30 91 69.9913 30 
89 71 29.0087 88.0087 71 30 90 71 29.0087 
90.9913 71 30 89 72 29.0087 88.0087 72 30 
90 72 29.0087 90.9913 72 30 89 73 29.0087 
88.0087 73 30 90 73 29.0087 90.9913 73 30 
89 74 29.0087 88.0087 74 30 90 74 29.0087 
90.9913 74 30 88.0087 75 30 90 75 29.0087 
90.9913 75 30 89 76 29.0087 88.0087 76 30 
90 76 29.0087 90.9913 76 30 89 77 29.0087 
88.0087 77 30 90 77 29.0087 90.9913 77 30 
89 78 29.0087 88.0087 78 30 90 78 29.0087 
90.9913 78 30 89 79 29.0087 88.0087 79 30 
89.9913 79 30 90 78.9913 30 89 79.9913 30 
87 63.0087 31 86.0087 64 31 88 63.0087 31 
89 63.0087 31 90 63.0087 31 91 63.0087 31 
92 63.0087 31 93 63.0087 31 94 63.0087 31 
95 63.0087 31 96 63.0087 31 96.9913 64 31 
86.0087 65 31 96.9913 65 31 86.0087 66 31 
96.9913 66 31 86 66.0087 31 85.0087 67 31 
96 67 30.0087 96.9913 67 31 86 67.9913 31 
86.0087 68 31 92.9913 68 31 93 67.9913 31 
94 67.9913 31 95 67.9913 31 96 67.9913 31 
86.0087 69 31 92 69 30.0087 92.9913 69 31 
87 69.9913 31 88 70 30.0087 87.0087 70 31 
90.9913 70 31 91 69.9913 31 92 69.9913 31 
88 71 30.0087 87.0087 71 31 90.9913 71 31 
88 71.9913 31 88.0087 72 31 90.9913 72 31 
88.0087 73 31 90.9913 73 31 88.0087 74 31 
90.9913 74 31 88.0087 75 31 90.9913 75 31 
88.0087 76 31 90.9913 76 31 88.0087 77 31 
90.9913 77 31 88.0087 78 31 90.9913 78 31 
88.0087 79 31 90 79 30.0087 90.9913 79 31 
89 79.9913 31 90 79.9913 31 87 63.0087 32 
86.0087 64 32 88 63.0087 32 89 63.0087 32 
90 63.0087 32 91 63.0087 32 92 63.0087 32 
93 63.0087 32 94 63.0087 32 95 63.0087 32 
96 63.0087 32 96.9913 64 32 86.0087 65 32 
96.9913 65 32 86.0087 66 32 96.9913 66 32 
86 66.0087 32 85.0087 67 32 96.9913 67 32 
86 67.9913 32 86.0087 68 32 93 68 31.0087 
94 68 31.0087 95 68 31.0087 96 68 31.0087 
96.9913 68 32 86.0087 69 32 93 69 31.0087 
94 69 31.0087 95 69 31.0087 95.9913 69 32 
96 68.9913 32 87 70 31.0087 86.0087 70 32 
91 70 31.0087 92 70 31.0087 93 70 31.0087 
94 70 31.0087 94.9913 70 32 95 69.9913 32 
87 71 31.0087 86.0087 71 32 91 71 31.0087 
92 71 31.0087 93 71 31.0087 93.9913 71 32 
94 70.9913 32 87 71.9913 32 88 71.9913 32 
88.0087 72 32 91 72 31.0087 92 72 31.0087 
92.9913 72 32 93 71.9913 32 88.0087 73 32 
91 73 31.0087 92 73 31.0087 92.9913 73 32 
88.0087 74 32 91 74 31.0087 92 74 31.0087 
92.9913 74 32 88.0087 75 32 91 75 31.0087 
92 75 31.0087 92.9913 75 32 88.0087 76 32 
91 76 31.0087 92 76 31.0087 92.9913 76 32 
88.0087 77 32 91 77 31.0087 92 77 31.0087 
92.9913 77 32 88.0087 78 32 91 78 31.0087 
92 78 31.0087 92.9913 78 32 88.0087 79 32 
91 79 31.0087 91.9913 79 32 92 78.9913 32 
89 79.9913 32 90 79.9913 32 91 79.9913 32 
87 63.0087 33 86.0087 64 33 88 63.0087 33 
89 63.0087 33 90 63.0087 33 91 63.0087 33 
92 63.0087 33 93 63.0087 33 94 63.0087 33 
95 63.0087 33 96 63.0087 33 96.9913 64 33 
86.0087 65 33 96.9913 65 33 86.0087 66 33 
96.9913 66 33 86 66.0087 33 85.0087 67 33 
96.9913 67 33 86 68 32.0087 85.0087 68 33 
96.9913 68 33 86 69 32.0087 85.0087 69 33 
96 69 32.0087 96.9913 69 33 86 69.9913 33 
86.0087 70 33 94.9913 70 33 95 69.9913 33 
96 69.9913 33 86.0087 71 33 94 71 32.0087 
94.9913 71 33 87 71.9913 33 88 72 32.0087 
87.0087 72 33 92.9913 72 33 93 71.9913 33 
94 71.9913 33 88 73 32.0087 87.0087 73 33 
92.9913 73 33 88 73.9913 33 88.0087 74 33 
92.9913 74 33 88.0087 75 33 92.9913 75 33 
88.0087 76 33 92.9913 76 33 88.0087 77 33 
92.9913 77 33 88.0087 78 33 92.9913 78 33 
88.0087 79 33 91.9913 79 33 92 78.9913 33 
89 79.9913 33 90 79.9913 33 91 79.9913 33 
87 64 33.9913 88 64 33.9913 89 64 33.9913 
90 64 33.9913 91 64 33.9913 92 64 33.9913 
93 64 33.9913 94 64 33.9913 94.0087 64 34 
95 63.0087 34 96 63.0087 34 96.9913 64 34 
87 65 33.9913 88 65 33.9913 89 65 33.9913 
90 65 33.9913 91 65 33.9913 92 65 33.9913 
93 65 33.9913 93.0087 65 34 94 64.0087 34 
96.9913 65 34 87 65.0087 34 86.0087 66 34 
88 65.0087 34 89 65.0087 34 90 65.0087 34 
91 65.0087 34 92 65.0087 34 93 65.0087 34 
97 65.0087 34 97 66 33.0087 98 66 33.0087 
98 65.0087 34 98.9913 66 34 86 66.0087 34 
85.0087 67 34 97 67 33.0087 98 67 33.0087 
98.9913 67 34 85 68 33.0087 85 67.0087 34 
84.0087 68 34 97 68 33.0087 98 68 33.0087 
98.9913 68 34 85 69 33.0087 84.0087 69 34 
97 69 33.0087 97.9913 69 34 98 68.9913 34 
85 69.9913 34 86 69.9913 34 86.0087 70 34 
95 70 33.0087 96 70 33.0087 96.9913 70 34 
97 69.9913 34 86.0087 71 34 95 71 33.0087 
95.9913 71 34 96 70.9913 34 87 72 33.0087 
86.0087 72 34 93 72 33.0087 94 72 33.0087 
94.9913 72 34 95 71.9913 34 87 73 33.0087 
86.0087 73 34 93 73 33.0087 94 73 33.0087 
94.9913 73 34 87 73.9913 34 88 73.9913 34 
88.0087 74 34 93 74 33.0087 94 74 33.0087 
94.9913 74 34 88.0087 75 34 93 75 33.0087 
93.9913 75 34 94 74.9913 34 88.0087 76 34 
92.9913 76 34 93 75.9913 34 88.0087 77 34 
92.9913 77 34 88.0087 78 34 92.9913 78 34 
88.0087 79 34 91.9913 79 34 92 78.9913 34 
89 79.9913 34 90 79.9913 34 91 79.9913 34 
95 63.0087 35 94.0087 64 35 96 64 34.9913 
95.9913 64 35 94 64.0087 35 93.0087 65 35 
96 64.0087 35 96.9913 65 35 86 66 34.0087 
86 65.0087 35 85.0087 66 35 87 65.0087 35 
88 65.0087 35 89 65.0087 35 90 65.0087 35 
91 65.0087 35 92 65.0087 35 93 65.0087 35 
97 65.0087 35 98 66 34.9913 97.9913 66 35 
85 67 34.0087 85 66.0087 35 84.0087 67 35 
98 67 34.9913 97.9913 67 35 84.0087 68 35 
98 67.0087 35 98.9913 68 35 84.0087 69 35 
97.9913 69 35 98 68.9913 35 85 69.9913 35 
86 69.9913 35 86.0087 70 35 96.9913 70 35 
97 69.9913 35 86.0087 71 35 95.9913 71 35 
96 70.9913 35 86.0087 72 35 94.9913 72 35 
95 71.9913 35 86.0087 73 35 94.9913 73 35 
87 73.9913 35 88 73.9913 35 88.0087 74 35 
94.9913 74 35 88.0087 75 35 93.9913 75 35 
94 74.9913 35 88.0087 76 35 92.9913 76 35 
93 75.9913 35 88.0087 77 35 92 77 34.9913 
91.9913 77 35 92 76.9913 35 88.0087 78 35 
92 78 34.9913 91.9913 78 35 89 78.9913 35 
89 79 34.9913 90 78.9913 35 90 79 34.9913 
91 78.9913 35 91 79 34.9913 95 64 35.9913 
86 65 35.0087 86 64.0087 36 85.0087 65 36 
86.9913 65 36 94 65 35.9913 95 65 35.9913 
96 65 35.9913 85 66 35.0087 85 65.0087 36 
84.0087 66 36 87 65.0087 36 88 65.0087 36 
89 65.0087 36 90 65.0087 36 91 65.0087 36 
92 65.0087 36 93 65.0087 36 94 65.0087 36 
95 65.0087 36 96 65.0087 36 97 66 35.9913 
96.9913 66 36 84 67 35.0087 84 66.0087 36 
83.0087 67 36 97 67 35.9913 96.9913 67 36 
84 67.9913 36 84.0087 68 36 97 67.0087 36 
98 67.0087 36 98.9913 68 36 84.0087 69 36 
97.9913 69 36 98 68.9913 36 85 69.9913 36 
86 69.9913 36 86.0087 70 36 96.9913 70 36 
97 69.9913 36 86.0087 71 36 95.9913 71 36 
96 70.9913 36 86.0087 72 36 94.9913 72 36 
95 71.9913 36 86.0087 73 36 94.9913 73 36 
87 73.9913 36 88 73.9913 36 88.0087 74 36 
94.9913 74 36 88.0087 75 36 93.9913 75 36 
94 74.9913 36 88.0087 76 36 92.9913 76 36 
93 75.9913 36 88.0087 77 36 91.9913 77 36 
92 76.9913 36 89 77.9913 36 89 78 35.9913 
90 77.9913 36 90 78 35.9913 91 77.9913 36 
91 78 35.9913 86 65 36.9913 85 65.0087 37 
84.0087 66 37 86 65.0087 37 87 65.0087 37 
88 65.0087 37 89 65.0087 37 90 65.0087 37 
91 65.0087 37 92 65.0087 37 93 65.0087 37 
94 65.0087 37 95 65.0087 37 96 66 36.9913 
95.9913 66 37 84 67 36.9913 84.0087 67 37 
96 66.0087 37 96.9913 67 37 84.0087 68 37 
97 67.0087 37 98 67.0087 37 98.9913 68 37 
84.0087 69 37 98 69 36.0087 98.9913 69 37 
85 69.9913 37 86 70 36.0087 85.0087 70 37 
96.9913 70 37 97 69.9913 37 98 69.9913 37 
86 71 36.0087 85.0087 71 37 96 71 36.0087 
96.9913 71 37 86 71.9913 37 86.0087 72 37 
94.9913 72 37 95 71.9913 37 96 71.9913 37 
86.0087 73 37 94.9913 73 37 87 73.9913 37 
88 73.9913 37 88.0087 74 37 94.9913 74 37 
88.0087 75 37 93.9913 75 37 94 74.9913 37 
88.0087 76 37 92 76 36.9913 91.9913 76 37 
92 75.9913 37 93 75.9913 37 89 76.9913 37 
89 77 36.9913 90 76.9913 37 90 77 36.9913 
91 76.9913 37 91 77 36.9913 85 66 37.9913 
86 66 37.9913 87 66 37.9913 88 66 37.9913 
89 66 37.9913 90 66 37.9913 91 66 37.9913 
92 66 37.9913 93 66 37.9913 94 66 37.9913 
95 66 37.9913 85 67 37.9913 85.0087 67 38 
[...]
POINT_DATA 1136
SCALARS scalars float
LOOKUP_TABLE default
1 1 1 1 1 1 1 1 1 
1 1 1 1 1 1 1 1 1 
1 1 1 1 1 1 1 1 1 
1 1 1 1 1 1 1 1 1 
1 1 1 1 1 1 1 1 1 
1 1 1 1 1 1 1 1 1 
1 1 1 1 1 1 1 1 1 
1 1 1 1 1 1 1 1 1 
1 1 1 1 1 1 1 1 1 
1 1 1 1 1 1 1 1 1 
1 1 1 1 1 1 1 1 1 
1 1 1 1 1 1 1 1 1 
1 1 1 1 1 1 1 1 1 
1 1 1 1 1 1 1 1 1 
1 1 1 1 1 1 1 1 1 
1 1 1 1 1 1 1 1 1 
1 1 1 1 1 1 1 1 1 
1 1 1 1 1 1 1 1 1 
1 1 1 1 1 1 1 1 1 
1 1 1 1 1 1 1 1 1 
1 1 1 1 1 1 1 1 1 
1 1 1 1 1 1 1 1 1 
1 1 1 1 1 1 1 1 1 
1 1 1 1 1 1 1 1 1 
1 1 1 1 1 1 1 1 1 
1 1 1 1 1 1 1 1 1 
1 1 1 1 1 1 1 1 1 
1 1 1 1 1 1 1 1 1 
1 1 1 1 1 1 1 1 1 
1 1 1 1 1 1 1 1 1 
1 1 1 1 1 1 1 1 1 
1 1 1 1 1 1 1 1 1 
1 1 1 1 1 1 1 1 1 
1 1 1 1 1 1 1 1 1 
1 1 1 1 1 1 1 1 1 
1 1 1 1 1 1 1 1 1 
1 1 1 1 1 1 1 1 1 
1 1 1 1 1 1 1 1 1 
1 1 1 1 1 1 1 1 1 
1 1 1 1 1 1 1 1 1 
1 1 1 1 1 1 1 1 1 
1 1 1 1 1 1 1 1 1 
1 1 1 1 1 1 1 1 1 
1 1 1 1 1 1 1 1 1 
1 1 1 1 1 1 1 1 1 
1 1 1 1 1 1 1 1 1 
1 1 1 1 1 1 1 1 1 
1 1 1 1 1 1 1 1 1 
1 1 1 1 1 1 1 1 1 
1 1 1 1 1 1 1 1 1 
1 1 1 1 1 1 1 1 1 
1 1 1 1 1 1 1 1 1 
1 1 1 1 1 1 1 1 1 
1 1 1 1 1 1 1 1 1 
1 1 1 1 1 1 1 1 1 
1 1 1 1 1 1 1 1 1 
1 1 1 1 1 1 1 1 1 
1 1 1 1 1 1 1 1 1 
1 1 1 1 1 1 1 1 1 
1 1 1 1 1 1 1 1 1 
1 1 1 1 1 1 1 1 1 
1 1 1 1 1 1 1 1 1 
1 1 1 1 1 1 1 1 1 
1 1 1 1 1 1 1 1 1 
1 1 1 1 1 1 1 1 1 
1 1 1 1 1 1 1 1 1 
1 1 1 1 1 1 1 1 1 
1 1 1 1 1 1 1 1 1 
1 1 1 1 1 1 1 1 1 
1 1 1 1 1 1 1 1 1 
1 1 1 1 1 1 1 1 1 
1 1 1 1 1 1 1 1 1 
1 1 1 1 1 1 1 1 1 
1 1 1 1 1 1 1 1 1 
1 1 1 1 1 1 1 1 1 
1 1 1 1 1 1 1 1 1 
1 1 1 1 1 1 1 1 1 
1 1 1 1 1 1 1 1 1 
1 1 1 1 1 1 1 1 1 
1 1 1 1 1 1 1 1 1 
1 1 1 1 1 1 1 1 1 
1 1 1 1 1 1 1 1 1 
1 1 1 1 1 1 1 1 1 
1 1 1 1 1 1 1 1 1 
1 1 1 1 1 1 1 1 1 
1 1 1 1 1 1 1 1 1 
1 1 1 1 1 1 1 1 1 
1 1 1 1 1 1 1 1 1 
1 1 1 1 1 1 1 1 1 
1 1 1 1 1 1 1 1 1 
1 1 1 1 1 1 1 1 1 
1 1 1 1 1 1 1 1 1 
1 1 1 1 1 1 1 1 1 
1 1 1 1 1 1 1 1 1 
1 1 1 1 1 1 1 1 1 
1 1 1 1 1 1 1 1 1 
1 1 1 1 1 1 1 1 1 
1 1 1 1 1 1 1 1 1 
1 1 1 1 1 1 1 1 1 
1 1 1 1 1 1 1 1 1 
1 1 1 1 1 1 1 1 1 
1 1 1 1 1 1 1 1 1 
1 1 1 1 1 1 1 1 1 
1 1 1 1 1 1 1 1 1 
1 1 1 1 1 1 1 1 1 
1 1 1 1 1 1 1 1 1 
1 1 1 1 1 1 1 1 1 
1 1 1 1 1 1 1 1 1 
1 1 1 1 1 1 1 1 1 
1 1 1 1 1 1 1 1 1 
1 1 1 1 1 1 1 1 1 
1 1 1 1 1 1 1 1 1 
1 1 1 1 1 1 1 1 1 
1 1 1 1 1 1 1 1 1 
1 1 1 1 1 1 1 1 1 
1 1 1 1 1 1 1 1 1 
1 1 1 1 1 1 1 1 1 
1 1 1 1 1 1 1 1 1 
1 1 1 1 1 1 1 1 1 
1 1 1 1 1 1 1 1 1 
1 1 1 1 1 1 1 1 1 
1 1 1 1 1 1 1 1 1 
1 1 1 1 1 1 1 1 1 
1 1 1 1 1 1 1 1 1 
1 1 1 1 1 1 1 1 1 
1 1 1 1 1 1 1 1 1 
1 1 
NORMALS normals float
-0.008695 -0.008695 -0.999924 -0.008695 -0.999924 -0.008695 -0.707093 -0.00614864 -0.707093 
0 -0.00869532 -0.999962 0 -0.999962 -0.00869532 0 -0.00869532 -0.999962 
0 -0.999962 -0.00869532 0 -0.00869532 -0.999962 0 -0.999962 -0.00869532 
0 -0.00869532 -0.999962 0 -0.999962 -0.00869532 0.00869532 0 -0.999962 
0.00877125 -0.999923 -0.00877125 0.999962 0 -0.00869532 -0.008695 0.008695 -0.999924 
-0.999924 0.008695 -0.008695 0 0.00869532 -0.999962 0 0 -1 
0 0 -1 0.008695 0.008695 -0.999924 0.57735 0.57735 -0.57735 
0.579024 0.573989 -0.579024 -0.008695 0.999924 -0.008695 -0.573989 0.579024 -0.579024 
-0.579024 0.573989 -0.579024 -0.00869532 0 -0.999962 0.00869532 0 -0.999962 
0.710174 0.703999 -0.00617543 0.707093 0.707093 -0.00614864 -0.00869532 0 -0.999962 
-0.707107 0 -0.707107 0.00869532 0 -0.999962 0.999962 0 -0.00869532 
-0.00869532 0 -0.999962 -0.707107 0 -0.707107 0.008695 0.008695 -0.999924 
0.999924 0.008695 -0.008695 0 0.00869532 -0.999962 -0.999923 0.00877125 -0.00877125 
0.573989 0.579024 -0.579024 0.57735 0.57735 -0.57735 0 0.999962 -0.00869532 
-0.710188 0 -0.704012 -0.00877159 -0.999962 0 -1 0 0 
0 -1 0 0 -1 0 0 -1 0 
0 -1 0 0 -1 0 0.00869532 -0.999962 0 
0.710174 -0.00617543 -0.703999 -0.710188 0.704012 0 -0.707107 0.707107 0 
0.57735 0.57735 -0.57735 0.707093 0.00614864 -0.707093 -0.579024 0.579024 -0.573989 
-0.579024 0.573989 -0.579024 -0.579024 0.573989 -0.579024 0.580712 0.575662 -0.575662 
0.575662 0.580712 -0.575662 0.00614864 0.707093 -0.707093 -0.707107 0 -0.707107 
-0.707107 0 -0.707107 0.710188 0 -0.704012 -0.707093 0.00614864 -0.707093 
-0.707093 0.00614864 -0.707093 0.710188 0 -0.704012 -0.57735 0.57735 -0.57735 
-0.579024 0.579024 -0.573989 0.57735 0.57735 -0.57735 0.707093 0.00614864 -0.707093 
-0.00617543 0.710174 -0.703999 0.00614864 0.707093 -0.707093 0 0 -1 
0 -0.704012 -0.710188 -0.999962 0 -0.00877159 0.704012 0 -0.710188 
0 0.704012 -0.710188 -0.710188 0 0.704012 -0.710174 -0.00617543 0.703999 
-0.00869532 -0.999962 0 0 -1 0 0 -1 0 
0 -1 0 0 -1 0 0 -1 0 
0.703999 -0.00617543 -0.710174 0 -0.999962 -0.00869532 0 -0.00869532 -0.999962 
0 -0.999962 -0.00869532 0 -0.00869532 -0.999962 0 -0.999962 -0.00869532 
0.008695 -0.008695 -0.999924 0.008695 -0.999924 -0.008695 0.999924 -0.008695 -0.008695 
-1 0 0 0.704012 0 -0.710188 0 0 -1 
0 0 -1 0.00869532 0 -0.999962 0.999962 0 -0.00869532 
-0.579024 0.573989 -0.579024 -0.710174 -0.703999 -0.00617543 0.575662 0.575662 -0.580712 
0 0.704012 -0.710188 0 0 -1 0 0 -1 
0 0 -1 0.008695 0.008695 -0.999924 0.999924 0.008695 -0.008695 
-0.00869532 0 -0.999962 -0.710174 -0.703999 -0.00617543 -0.999962 0 -0.00869532 
-0.704012 0 -0.710188 0.704012 0 -0.710188 0 0 -1 
0 0.00869532 -0.999962 0 0.00869532 -0.999962 0.008695 0.008695 -0.999924 
0.57735 0.57735 -0.57735 0.57735 0.57735 -0.57735 -0.710174 0.703999 -0.00617543 
-0.710174 0.703999 -0.00617543 -0.707107 0 -0.707107 0.704012 0 -0.710188 
0.008695 0.008695 -0.999924 0.707093 0.707093 -0.00614864 0.703999 0.710174 -0.00617543 
0 0.999962 -0.00869532 0.008695 0.999924 -0.008695 -0.008695 0.008695 -0.999924 
-0.999924 0.008695 -0.008695 -0.573989 0.579024 -0.579024 0.707093 0.00614864 -0.707093 
0.57735 0.57735 -0.57735 0.57735 0.57735 -0.57735 -0.008695 0.999924 -0.008695 
-0.573989 0.579024 -0.579024 -0.00617543 0.703999 -0.710174 -0.579024 0.573989 -0.579024 
0.00617543 0.703999 -0.710174 0.710174 0.703999 -0.00617543 0.707093 0.707093 -0.00614864 
-0.00869532 0 -0.999962 -0.707107 0 -0.707107 0.00869532 0 -0.999962 
0.999962 0 -0.00869532 -0.00869532 0 -0.999962 -0.999962 0 -0.00869532 
0.00869532 0 -0.999962 0.999962 0 -0.00869532 -0.00869532 0 -0.999962 
-0.999962 0 -0.00869532 0.00869532 0 -0.999962 0.999962 0 -0.00869532 
-0.00617543 -0.703999 -0.710174 -0.999962 0 -0.00869532 0.00869532 0 -0.999962 
0.999962 0 -0.00869532 -1 0 0 0.707107 0 -0.707107 
0.999962 0 -0.00869532 -0.00617543 0.703999 -0.710174 -0.999962 0 -0.00869532 
0.00869532 0 -0.999962 0.999962 0 -0.00869532 -0.00869532 0 -0.999962 
-0.999962 0 -0.00869532 0.00869532 0 -0.999962 0.999962 0 -0.00869532 
-0.00869532 0 -0.999962 -0.999962 0 -0.00869532 0.008695 0.008695 -0.999924 
0.999924 0.008695 -0.008695 0 0.00869532 -0.999962 -0.999923 0.00877125 -0.00877125 
0.573989 0.579024 -0.579024 0.57735 0.57735 -0.57735 0 0.999962 -0.00869532 
-0.00869532 -0.999962 0 -0.999962 -0.00869532 0 0 -1 0 
0 -1 0 0 -1 0 0 -1 0 
0 -1 0 0 -1 0 0 -1 0 
0 -1 0 0.00869532 -0.999962 0 0.999962 -0.00869532 0 
-1 0 0 1 0 0 -0.710188 -0.704012 0 
1 0 0 -0.710188 -0.704012 0 -1 0 0 
0.57735 0.57735 -0.57735 0.999924 0.008695 -0.008695 -0.710188 0.704012 0 
-0.710188 0.704012 0 0.580712 0.575662 -0.575662 0.575662 0.580712 -0.575662 
0 0.710188 -0.704012 0 0.710188 -0.704012 0.00614864 0.707093 -0.707093 
-0.999962 0.00869532 0 0.57735 0.57735 -0.57735 0.707093 0.00614864 -0.707093 
-0.579024 0.579024 -0.573989 -0.579024 0.573989 -0.579024 -0.579024 0.573989 -0.579024 
0.580712 0.575662 -0.575662 0.575662 0.580712 -0.575662 0.00614864 0.707093 -0.707093 
-0.707093 0.00614864 -0.707093 -0.707093 0.00614864 -0.707093 0.710188 0 -0.704012 
-0.707093 0.707093 -0.00614864 -0.710188 0.704012 0 0.710188 0 -0.704012 
-1 0 0 0.710188 0 -0.704012 -1 0 0 
0.710188 0 -0.704012 -1 0 0 0.710188 0 -0.704012 
-1 0 0 0.710188 0 -0.704012 -1 0 0 
0.710188 0 -0.704012 -1 0 0 0.710188 0 -0.704012 
-0.999962 0.00869532 0 0.57735 0.57735 -0.57735 0.707093 0.00614864 -0.707093 
-0.00869532 0.999962 0 0.008695 0.999924 -0.008695 -0.00869532 -0.999962 0 
-0.999962 -0.00869532 0 0 -1 0 0 -1 0 
0 -1 0 0 -1 0 0 -1 0 
0 -1 0 0 -1 0 0 -1 0 
0.00869532 -0.999962 0 0.999962 -0.00869532 0 -1 0 0 
1 0 0 -0.710188 -0.704012 0 1 0 0 
-0.710188 -0.704012 0 -1 0 0 1 0 0 
-0.580712 0.575662 -0.575662 -0.580712 0.575662 -0.575662 0.575662 0.575662 -0.580712 
0 0.704012 -0.710188 0 0.704012 -0.710188 0.00614864 0.707093 -0.707093 
0.999924 0.008695 -0.008695 -0.710188 0 -0.704012 0.704012 0 -0.710188 
0 0 -1 0.008695 0.008695 -0.999924 0.57735 0.57735 -0.57735 
0.57735 0.57735 -0.57735 -0.579024 0.573989 -0.579024 -0.999962 0 -0.00869532 
0.575662 0.575662 -0.580712 0 0.704012 -0.710188 0 0 -1 
0.008695 0.008695 -0.999924 0.707093 0.707093 -0.00614864 0.707093 0.707093 -0.00614864 
-0.707093 0.00614864 -0.707093 -0.999924 0.008695 -0.008695 0.704012 0 -0.710188 
0 0 -1 0.008695 0.008695 -0.999924 0.57735 0.57735 -0.57735 
0.57735 0.57735 -0.57735 -0.008695 0.999924 -0.008695 -0.575662 0.580712 -0.575662 
-0.580712 0.575662 -0.575662 0.704012 0 -0.710188 0.00869532 0 -0.999962 
0.710174 0.703999 -0.00617543 0.707093 0.707093 -0.00614864 -0.710188 0 -0.704012 
0.704012 0 -0.710188 0.00869532 0 -0.999962 0.999962 0 -0.00869532 
-1 0 0 0.704012 0 -0.710188 0.00869532 0 -0.999962 
0.999962 0 -0.00869532 -1 0 0 0.704012 0 -0.710188 
0.00869532 0 -0.999962 0.999962 0 -0.00869532 -1 0 0 
0.704012 0 -0.710188 0.00869532 0 -0.999962 0.999962 0 -0.00869532 
-1 0 0 0.704012 0 -0.710188 0.00869532 0 -0.999962 
0.999962 0 -0.00869532 -1 0 0 0.704012 0 -0.710188 
0.008695 0.008695 -0.999924 0.999924 0.008695 -0.008695 -0.999962 0.00869532 0 
0.707093 0.00614864 -0.707093 0.707093 0.707093 -0.00614864 0.707093 0.707093 -0.00614864 
-0.00869532 0.999962 0 0 1 0 0.008695 0.999924 -0.008695 
-0.008695 -0.999924 0.008695 -0.999924 -0.008695 0.008695 0 -0.999962 0.00869532 
0 -0.999962 0.00869532 0 -0.999962 0.00869532 0 -0.999962 0.00869532 
0 -0.999962 0.00869532 0 -0.999962 0.00869532 0 -0.999962 0.00869532 
0 -1 0 0.00869532 -0.999962 0 0.999962 -0.00869532 0 
-0.999962 0 0.00869532 1 0 0 -0.710188 -0.704012 0 
0.710188 0 -0.704012 -0.707107 -0.707107 0 -0.999962 -0.00869532 0 
0.710188 0 -0.704012 -0.579024 0.573989 -0.579024 -0.707107 0 -0.707107 
0.710188 0 -0.704012 -0.707093 0.00614864 -0.707093 -0.707093 0.00614864 -0.707093 
0.57735 0.57735 -0.57735 0.707093 0.00614864 -0.707093 -0.707093 0.707093 -0.00614864 
-0.710188 0.704012 0 0.580712 0.575662 -0.575662 0.575662 0.580712 -0.575662 
0.00614864 0.707093 -0.707093 -0.999962 0.00869532 0 0.57735 0.57735 -0.57735 
0.707093 0.00614864 -0.707093 -0.579024 0.579024 -0.573989 -0.579024 0.573989 -0.579024 
-0.579024 0.573989 -0.579024 0.580712 0.575662 -0.575662 0.575662 0.580712 -0.575662 
0.00614864 0.707093 -0.707093 -0.707093 0.00614864 -0.707093 -0.707093 0.00614864 -0.707093 
0.710188 0 -0.704012 -0.707093 0.707093 -0.00614864 -0.710188 0.704012 0 
0.710188 0 -0.704012 -1 0 0 0.710188 0 -0.704012 
-1 0 0 1 0 0 -1 0 0 
1 0 0 -1 0 0 0.999962 0.00869532 0 
-0.999962 0.00869532 0 0.707107 0.707107 0 0.707107 0.707107 0 
-0.00869532 0.999962 0 0 1 0 0.00869532 0.999962 0 
-0.008695 -0.008695 0.999924 0 -0.00869532 0.999962 0 -0.00869532 0.999962 
0 -0.00869532 0.999962 0 -0.00869532 0.999962 0 -0.00869532 0.999962 
0 -0.00869532 0.999962 -0.573989 -0.579024 0.579024 -0.579024 -0.579024 0.573989 
-0.00869532 -0.999962 0 0.008695 -0.999924 0.008695 0.999924 -0.008695 0.008695 
-0.00617543 -0.703999 0.710174 0 -0.704012 0.710188 0 -0.704012 0.710188 
0 -0.704012 0.710188 0 -0.704012 0.710188 0 -0.704012 0.710188 
-0.575662 -0.575662 0.580712 -0.579024 -0.579024 0.573989 -0.579024 -0.579024 0.573989 
0.710188 -0.704012 0 -0.00617543 -0.710174 0.703999 -0.579024 -0.579024 -0.573989 
0 -0.710188 0.704012 0 -0.710188 0.704012 0 -0.710188 0.704012 
0 -0.710188 0.704012 0 -0.710188 0.704012 -0.575662 -0.580712 0.575662 
0.703999 -0.710174 -0.00617543 0.703999 -0.00617543 -0.710174 0.00877125 -0.00877125 -0.999923 
0.00869532 -0.999962 0 0.999962 -0.00869532 0 -0.579024 -0.579024 -0.573989 
-0.579024 -0.579024 -0.573989 0.704012 0 -0.710188 0.00877159 0 -0.999962 
1 0 0 -0.707093 -0.00614864 -0.707093 -0.57735 -0.57735 -0.57735 
-0.999924 -0.008695 -0.008695 0.704012 0 -0.710188 0.008695 0.008695 -0.999924 
0.999924 0.008695 -0.008695 -0.707093 0.00614864 -0.707093 -0.999924 0.008695 -0.008695 
0.707093 0.00614864 -0.707093 0.707093 0.707093 -0.00614864 0.707093 0.707093 -0.00614864 
-0.008695 0.999924 -0.008695 -0.704012 0.710188 0 -0.710188 0.704012 0 
0.575662 0.575662 -0.580712 0.00614864 0.707093 -0.707093 0.707093 0.707093 -0.00614864 
0.707093 0.707093 -0.00614864 -1 0 0 0.707093 0.00614864 -0.707093 
0.707093 0.707093 -0.00614864 0.707093 0.707093 -0.00614864 -0.579024 0.573989 -0.579024 
-0.999962 0 -0.00869532 0.575662 0.575662 -0.580712 0.00617543 0.703999 -0.710174 
0.710174 0.703999 -0.00617543 0.707093 0.707093 -0.00614864 -0.707093 0.00614864 -0.707093 
-0.999924 0.008695 -0.008695 0.704012 0 -0.710188 0.00869532 0 -0.999962 
0.999962 0 -0.00869532 -0.008695 0.999924 -0.008695 -0.704012 0.710188 0 
-0.710188 0.704012 0 0.704012 0 -0.710188 0.008695 0.008695 -0.999924 
0.999924 0.008695 -0.008695 -1 0 0 0.707093 0.00614864 -0.707093 
0.707093 0.707093 -0.00614864 0.707093 0.707093 -0.00614864 -1 0 0 
0.710188 0.704012 0 0.707093 0.707093 -0.00614864 -1 0 0 
0.999962 0 0.00869532 -1 0 0 0.999924 0.008695 0.008695 
-0.999924 0.008695 0.008695 0.707093 0.707093 0.00614864 0.707093 0.707093 0.00614864 
-0.008695 0.999924 0.008695 0 0.999962 0.00869532 0.008695 0.999924 0.008695 
0 -0.999962 0.00869532 -0.703999 -0.710174 0.00617543 0.57735 -0.57735 0.57735 
0.573989 -0.579024 0.579024 -0.707093 -0.707093 0.00614864 -0.707093 -0.707093 0.00614864 
0.57735 -0.57735 0.57735 0.707093 -0.707093 0.00614864 -0.57735 -0.57735 -0.57735 
-0.00614864 -0.707093 -0.707093 -0.57735 -0.57735 -0.57735 0 -1 0 
0 -1 0 0 -1 0 0 -1 0 
0 -1 0 0 -1 0 -0.704012 -0.710188 0 
0.707093 -0.707093 0.00614864 0.710174 -0.00617543 0.703999 0.707093 -0.00614864 0.707093 
-0.57735 -0.57735 -0.57735 -0.57735 -0.57735 -0.57735 -0.707093 -0.00614864 -0.707093 
0.580712 -0.575662 0.575662 0.579024 -0.573989 0.579024 -1 0 0 
0.580712 -0.575662 0.575662 1 0 0 -0.999962 0.00869532 0 
0.707107 0.707107 0 0.710188 0.704012 0 -0.00869532 0.999962 0 
-0.704012 0.710188 0 -0.710188 0.704012 0 0.707107 0.707107 0 
0.707107 0.707107 0 -1 0 0 0.707107 0.707107 0 
0.707107 0.707107 0 -1 0 0 0.710188 0.704012 0 
0.707107 0.707107 0 -0.999962 0.00869532 0 1 0 0 
-0.00869532 0.999962 0 -0.704012 0.710188 0 -0.710188 0.704012 0 
0.999962 0.00869532 0 -1 0 0 0.707107 0.707107 0 
0.707107 0.707107 0 -1 0 0 0.707107 0.707107 0 
0.707107 0.707107 0 -1 0 0 0.579024 0.573989 0.579024 
0.580712 0.575662 0.575662 0.579024 0.579024 0.573989 -0.999924 0.008695 0.008695 
0.707093 0.00614864 0.707093 0.707093 0.00614864 0.707093 -0.00614864 0.707093 0.707093 
-0.00614864 0.707093 0.707093 0 0.707107 0.707107 0 0.707107 0.707107 
0.00614864 0.707093 0.707093 0.00614864 0.707093 0.707093 0 -0.00869532 0.999962 
0 -0.710188 -0.704012 0 -1 0 -0.704012 -0.710188 0 
0.704012 -0.710188 0 -0.00614864 -0.707093 0.707093 0 -0.704012 0.710188 
0.00614864 -0.707093 0.707093 -0.57735 -0.57735 -0.57735 -0.707093 -0.707093 -0.00614864 
-0.707093 -0.707093 -0.00614864 0.704012 -0.710188 0 0 -1 0 
0 -1 0 0 -1 0 0 -1 0 
0 -1 0 0 -1 0 0 -0.710188 0.704012 
0 -0.710188 0.704012 0.00614864 -0.707093 0.707093 0.707093 -0.00614864 0.707093 
0.707093 -0.00614864 0.707093 -0.710188 0 -0.704012 -0.710188 -0.704012 0 
-1 0 0 0.579024 -0.573989 0.579024 0.580712 -0.575662 0.575662 
-0.710188 0.704012 0 -0.710188 0.704012 0 0.575662 -0.580712 0.575662 
0.00877159 -0.999962 0 1 0 0 -0.999962 0.00869532 0 
0.579024 0.579024 -0.573989 0.580712 0.575662 -0.575662 -0.00869532 0.999962 0 
-0.575662 0.580712 -0.575662 -0.580712 0.575662 -0.575662 0.707107 0.707107 0 
0.707107 0.707107 0 -0.710188 0 -0.704012 0.579024 0.579024 -0.573989 
0.579024 0.579024 -0.573989 -1 0 0 0.710188 0.704012 0 
0.707107 0.707107 0 -0.999962 0.00869532 0 1 0 0 
-0.00869532 0.999962 0 -0.704012 0.710188 0 -0.710188 0.704012 0 
0.999962 0.00869532 0 -1 0 0 0.707107 0.707107 0 
0.707107 0.707107 0 -1 0 0 0.707093 0.707093 0.00614864 
0.707107 0.707107 0 -0.999924 0.008695 0.008695 0.707093 0.707093 0.00614864 
0.707093 0.707093 0.00614864 -0.00614864 0.707093 0.707093 -0.00614864 0.707093 0.707093 
0 0.707107 0.707107 0 0.707107 0.707107 0.00614864 0.707093 0.707093 
0.00614864 0.707093 0.707093 0 -0.710188 0.704012 -0.008695 -0.999924 0.008695 
-0.999924 -0.008695 0.008695 0 -0.707107 0.707107 0 -0.999962 0.00869532 
0 -0.999962 0.00869532 0 -0.999962 0.00869532 0 -0.999962 0.00869532 
0 -0.999962 0.00869532 0 -0.999962 0.00869532 0 -0.999962 0.00869532 
0 -0.999962 0.00869532 0.008695 -0.999924 0.008695 0.57735 -0.57735 0.57735 
0.57735 -0.57735 0.57735 -0.710188 0 0.704012 -0.707107 0 0.707107 
0.579024 -0.579024 0.573989 0.707107 -0.707107 0 -1 0 0 
0.704012 -0.710188 0 0.00869532 -0.999962 0 0.999962 -0.00869532 0 
-0.710174 0.00617543 -0.703999 0.57735 0.57735 -0.57735 0.999924 0.008695 -0.008695 
-0.579024 0.579024 -0.573989 -0.579024 0.573989 -0.579024 -0.579024 0.573989 -0.579024 
0.580712 0.575662 -0.575662 0.575662 0.580712 -0.575662 0.00614864 0.707093 -0.707093 
-0.707093 0.00614864 -0.707093 -0.707093 0.00614864 -0.707093 0.57735 0.57735 -0.57735 
0.707093 0.00614864 -0.707093 -0.707093 0.707093 -0.00614864 -0.710188 0.704012 0 
0.580712 0.575662 -0.575662 0.575662 0.580712 -0.575662 0.00614864 0.707093 -0.707093 
-0.999962 0.00869532 0 0.710188 0 -0.704012 -0.00869532 0.999962 0 
-0.704012 0.710188 0 -0.710188 0.704012 0 0.999962 0.00869532 0 
-1 0 0 0.707107 0.707107 0 0.707107 0.707107 0 
-0.999924 0.008695 0.008695 0.57735 0.57735 0.57735 0.57735 0.57735 0.57735 
0.575662 0.580712 0.575662 0.00869532 0.999962 0 -0.00614864 0.707093 0.707093 
-0.00614864 0.707093 0.707093 0 0.707107 0.707107 0 0.707107 0.707107 
0.00614864 0.707093 0.707093 0.00614864 0.707093 0.707093 -0.008695 -0.008695 0.999924 
0 -0.707107 0.707107 0 -0.00869532 0.999962 0 -0.00869532 0.999962 
0 -0.00869532 0.999962 0 -0.00869532 0.999962 0 -0.00869532 0.999962 
0 -0.00869532 0.999962 0 -0.00869532 0.999962 0 -0.00869532 0.999962 
0.008695 -0.008695 0.999924 -0.579024 -0.573989 0.579024 -0.575662 -0.580712 0.575662 
0 -0.710188 0.704012 0.575662 -0.575662 0.580712 0.575662 -0.580712 0.575662 
0 -0.704012 0.710188 0 -0.704012 0.710188 0 -0.704012 0.710188 
0 -0.704012 0.710188 0 -0.704012 0.710188 0 -0.704012 0.710188 
0 -0.704012 0.710188 -0.575662 -0.575662 0.580712 0 -1 0 
-0.575662 -0.580712 0.575662 0.704012 -0.710188 0 -0.579024 -0.579024 0.573989 
-0.707107 -0.707107 0 0.575662 -0.580712 0.575662 0 -0.710188 0.704012 
0 -0.710188 0.704012 0 -0.710188 0.704012 0 -0.710188 0.704012 
0 -0.710188 0.704012 0 -0.710188 0.704012 0 -0.710188 0.704012 
-0.575662 -0.580712 0.575662 0.704012 -0.710188 0 0.00869532 -0.999962 0 
0.999962 -0.00869532 0 -0.707107 0 -0.707107 -0.710174 -0.703999 -0.00617543 
-0.999962 0 -0.00869532 1 0 0 -0.579024 0.573989 -0.579024 
-0.579024 0.573989 -0.579024 -0.579024 0.573989 -0.579024 0.575662 0.575662 -0.580712 
0.00614864 0.707093 -0.707093 0.999924 0.008695 -0.008695 -0.707093 0.00614864 -0.707093 
-0.999924 0.008695 -0.008695 0.707093 0.00614864 -0.707093 0.707093 0.707093 -0.00614864 
0.707093 0.707093 -0.00614864 -0.008695 0.999924 -0.008695 -0.575662 0.580712 -0.575662 
-0.580712 0.575662 -0.575662 0.575662 0.575662 -0.580712 0.00614864 0.707093 -0.707093 
0.707093 0.707093 -0.00614864 0.707093 0.707093 -0.00614864 -0.710174 0.00617543 -0.703999 
0.707093 0.00614864 -0.707093 0.707093 0.707093 -0.00614864 0.707093 0.707093 -0.00614864 
-0.00869532 0.999962 0 -0.575662 0.580712 -0.575662 -0.580712 0.575662 -0.575662 
0.707107 0.707107 0 0.707093 0.707093 -0.00614864 -0.710174 0.00617543 -0.703999 
0.707107 0.707107 0 0.707107 0.707107 0 -0.00617543 0.710174 0.703999 