# vtk DataFile Version 3.0
vtk output
ASCII
DATASET POLYDATA
POINTS 8130 float
68 35 52.0213 68 34.0213 53 67.0213 35 53 
69 35 52.0213 69 34.0213 53 70 35 52.0213 
70 34.0213 53 71 35 52.0213 71 34.0213 53 
72 35 52.0213 72 34.0213 53 73 35 52.0213 
73 34.0213 53 74 35 52.0213 74 34.0213 53 
75 35 52.0213 75 34.0213 53 76 35 52.0213 
76 34.0213 53 77 35 52.0213 77 34.0213 53 
78 35 52.0213 78 34.0213 53 79 35 52.0213 
79 34.0213 53 80 35 52.0213 80 34.0213 53 
80.9787 35 53 68 36 52.0213 67.0213 36 53 
68.9787 36 53 69 35.9787 53 70 35.9787 53 
71 35.9787 53 72 35.9787 53 73 35.9787 53 
74 35.9787 53 75 35.9787 53 76 35.9787 53 
77 35.9787 53 78 35.9787 53 79 35.9787 53 
80 35.9787 53 60 37 52.0213 60 36.0213 53 
59.0213 37 53 61 37 52.0213 61 36.0213 53 
62 37 52.0213 62 36.0213 53 63 37 52.0213 
63 36.0213 53 64 37 52.0213 64 36.0213 53 
65 37 52.0213 65 36.0213 53 66 37 52.0213 
66 36.0213 53 67 37 52.0213 67 36.0213 53 
68 37 52.0213 68.9787 37 53 60 38 52.0213 
59.0213 38 53 60.9787 38 53 61 37.9787 53 
62 37.9787 53 63 37.9787 53 64 37.9787 53 
65 37.9787 53 66 37.9787 53 67 37.9787 53 
68 37.9787 53 58 39 52.0213 58 38.0213 53 
57.0213 39 53 59 39 52.0213 59 38.0213 53 
60 39 52.0213 60.9787 39 53 58 40 52.0213 
57.0213 40 53 58.9787 40 53 59 39.9787 53 
60 39.9787 53 58 40.9787 53 75 26 53.0213 
75 25.0213 54 74.0213 26 54 76 26 53.0213 
76 25.0213 54 77 26 53.0213 77 25.0213 54 
78 26 53.0213 78 25.0213 54 78.9787 26 54 
74 27 53.0213 74 26.0213 54 73.0213 27 54 
75 27 53.0213 76 27 53.0213 77 27 53.0213 
78 27 53.0213 78.9787 27 54 67 28 53.0213 
67 27.0213 54 66.0213 28 54 68 28 53.0213 
68 27.0213 54 69 28 53.0213 69 27.0213 54 
70 28 53.0213 70 27.0213 54 71 28 53.0213 
71 27.0213 54 72 28 53.0213 72 27.0213 54 
73 28 53.0213 73 27.0213 54 74 28 53.0213 
75 28 53.0213 76 28 53.0213 77 28 53.0213 
78 28 53.0213 79 27.0213 54 79 28 53.0213 
80 28 53.0213 80 27.0213 54 81 28 53.0213 
81 27.0213 54 82 28 53.0213 82 27.0213 54 
82.9787 28 54 66 29 53.0213 66 28.0213 54 
65.0213 29 54 67 29 53.0213 68 29 53.0213 
69 29 53.0213 70 29 53.0213 71 29 53.0213 
72 29 53.0213 73 29 53.0213 74 29 53.0213 
75 29 53.0213 76 29 53.0213 77 29 53.0213 
78 29 53.0213 79 29 53.0213 80 29 53.0213 
81 29 53.0213 82 29 53.0213 82.9787 29 54 
63 30 53.0213 63 29.0213 54 62.0213 30 54 
64 30 53.0213 64 29.0213 54 65 30 53.0213 
65 29.0213 54 66 30 53.0213 67 30 53.0213 
68 30 53.0213 69 30 53.0213 70 30 53.0213 
71 30 53.0213 72 30 53.0213 73 30 53.0213 
74 30 53.0213 75 30 53.0213 76 30 53.0213 
77 30 53.0213 78 30 53.0213 79 30 53.0213 
80 30 53.0213 81 30 53.0213 82 30 53.0213 
82.9787 30 54 62 31 53.0213 62 30.0213 54 
61.0213 31 54 63 31 53.0213 64 31 53.0213 
65 31 53.0213 66 31 53.0213 67 31 53.0213 
68 31 53.0213 69 31 53.0213 70 31 53.0213 
71 31 53.0213 72 31 53.0213 73 31 53.0213 
74 31 53.0213 75 31 53.0213 76 31 53.0213 
77 31 53.0213 78 31 53.0213 79 31 53.0213 
80 31 53.0213 81 31 53.0213 82 31 53.0213 
82.9787 31 54 61 32 53.0213 61 31.0213 54 
60.0213 32 54 62 32 53.0213 63 32 53.0213 
64 32 53.0213 65 32 53.0213 66 32 53.0213 
67 32 53.0213 68 32 53.0213 69 32 53.0213 
70 32 53.0213 71 32 53.0213 72 32 53.0213 
73 32 53.0213 74 32 53.0213 75 32 53.0213 
76 32 53.0213 77 32 53.0213 78 32 53.0213 
79 32 53.0213 80 32 53.0213 81 32 53.0213 
82 32 53.0213 82.9787 32 54 60 33 53.0213 
60 32.0213 54 59.0213 33 54 61 33 53.0213 
62 33 53.0213 63 33 53.0213 64 33 53.0213 
65 33 53.0213 66 33 53.0213 67 33 53.0213 
68 33 53.0213 69 33 53.0213 70 33 53.0213 
71 33 53.0213 72 33 53.0213 73 33 53.0213 
74 33 53.0213 75 33 53.0213 76 33 53.0213 
77 33 53.0213 78 33 53.0213 79 33 53.0213 
80 33 53.0213 81 33 53.0213 82 33 53.0213 
82.9787 33 54 57 34 53.0213 57 33.0213 54 
56.0213 34 54 58 34 53.0213 58 33.0213 54 
59 34 53.0213 59 33.0213 54 60 34 53.0213 
61 34 53.0213 62 34 53.0213 63 34 53.0213 
64 34 53.0213 65 34 53.0213 66 34 53.0213 
67 34 53.0213 68 34 53.0213 69 34 53.0213 
70 34 53.0213 71 34 53.0213 72 34 53.0213 
73 34 53.0213 74 34 53.0213 75 34 53.0213 
76 34 53.0213 77 34 53.0213 78 34 53.0213 
79 34 53.0213 80 34 53.0213 81 34 53.0213 
82 34 53.0213 82.9787 34 54 56 35 53.0213 
56 34.0213 54 55.0213 35 54 57 35 53.0213 
58 35 53.0213 59 35 53.0213 60 35 53.0213 
61 35 53.0213 62 35 53.0213 63 35 53.0213 
64 35 53.0213 65 35 53.0213 66 35 53.0213 
67 35 53.0213 81 35 53.0213 81.9787 35 54 
82 34.9787 54 55 36 53.0213 55 35.0213 54 
54.0213 36 54 56 36 53.0213 57 36 53.0213 
58 36 53.0213 59 36 53.0213 60 36 53.0213 
61 36 53.0213 62 36 53.0213 63 36 53.0213 
64 36 53.0213 65 36 53.0213 66 36 53.0213 
67 36 53.0213 69 36 53.0213 70 36 53.0213 
71 36 53.0213 72 36 53.0213 73 36 53.0213 
74 36 53.0213 75 36 53.0213 76 36 53.0213 
77 36 53.0213 78 36 53.0213 79 36 53.0213 
80 36 53.0213 80.9787 36 54 81 35.9787 54 
55 37 53.0213 54.0213 37 54 56 37 53.0213 
57 37 53.0213 58 37 53.0213 59 37 53.0213 
69 37 53.0213 70 37 53.0213 71 37 53.0213 
72 37 53.0213 73 37 53.0213 74 37 53.0213 
75 37 53.0213 76 37 53.0213 77 37 53.0213 
78 37 53.0213 79 37 53.0213 79.9787 37 54 
80 36.9787 54 55 38 53.0213 54.0213 38 54 
56 38 53.0213 57 38 53.0213 58 38 53.0213 
59 38 53.0213 61 38 53.0213 62 38 53.0213 
63 38 53.0213 64 38 53.0213 65 38 53.0213 
66 38 53.0213 67 38 53.0213 68 38 53.0213 
69 38 53.0213 70 38 53.0213 71 38 53.0213 
72 38 53.0213 73 38 53.0213 74 38 53.0213 
75 38 53.0213 76 38 53.0213 77 38 53.0213 
78 38 53.0213 78.9787 38 54 79 37.9787 54 
54 39 53.0213 54 38.0213 54 53.0213 39 54 
55 39 53.0213 56 39 53.0213 57 39 53.0213 
61 39 53.0213 62 39 53.0213 63 39 53.0213 
64 39 53.0213 65 39 53.0213 66 39 53.0213 
67 39 53.0213 68 39 53.0213 69 39 53.0213 
70 39 53.0213 71 39 53.0213 72 39 53.0213 
73 39 53.0213 74 39 53.0213 75 39 53.0213 
76 39 53.0213 77 39 53.0213 77.9787 39 54 
78 38.9787 54 53 40 53.0213 53 39.0213 54 
52.0213 40 54 54 40 53.0213 55 40 53.0213 
56 40 53.0213 57 40 53.0213 59 40 53.0213 
60 40 53.0213 60.9787 40 54 61 39.9787 54 
62 39.9787 54 63 39.9787 54 64 39.9787 54 
65 39.9787 54 66 39.9787 54 67 39.9787 54 
68 39.9787 54 69 39.9787 54 70 39.9787 54 
71 39.9787 54 72 39.9787 54 72.0213 40 54 
73 40 53.0213 74 40 53.0213 75 40 53.0213 
76 40 53.0213 76.9787 40 54 77 39.9787 54 
53 41 53.0213 52.0213 41 54 54 41 53.0213 
55 41 53.0213 56 41 53.0213 57 41 53.0213 
58 41 53.0213 59 41 53.0213 59.9787 41 54 
60 40.9787 54 73 41 53.0213 72.0213 41 54 
74 41 53.0213 75 41 53.0213 75.9787 41 54 
76 40.9787 54 53 41.9787 54 54 41.9787 54 
55 41.9787 54 56 41.9787 54 57 41.9787 54 
58 41.9787 54 59 41.9787 54 73 41.9787 54 
74 41.9787 54 75 41.9787 54 74 25 54.0213 
74 24.0213 55 73.0213 25 55 75 25 54.0213 
75 24.0213 55 76 25 54.0213 76 24.0213 55 
77 25 54.0213 77 24.0213 55 77.9787 25 55 
74 26 54.0213 73.0213 26 55 78 25.0213 55 
78.9787 26 55 67 27 54.0213 67 26.0213 55 
66.0213 27 55 68 27 54.0213 68 26.0213 55 
69 27 54.0213 69 26.0213 55 70 27 54.0213 
70 26.0213 55 71 27 54.0213 71 26.0213 55 
72 27 54.0213 72 26.0213 55 73 27 54.0213 
73 26.0213 55 79 26.0213 55 79 27 54.0213 
80 27 54.0213 80 26.0213 55 81 27 54.0213 
81 26.0213 55 81.9787 27 55 66 28 54.0213 
66 27.0213 55 65.0213 28 55 82 27.0213 55 
82.9787 28 55 64 29 54.0213 64 28.0213 55 
63.0213 29 55 65 29 54.0213 65 28.0213 55 
82.9787 29 55 62 30 54.0213 62 29.0213 55 
61.0213 30 55 63 29.0213 55 82.9787 30 55 
61 31 54.0213 61 30.0213 55 60.0213 31 55 
82.9787 31 55 60 32 54.0213 60 31.0213 55 
59.0213 32 55 82.9787 32 55 58 33 54.0213 
58 32.0213 55 57.0213 33 55 59 33 54.0213 
59 32.0213 55 82.9787 33 55 56 34 54.0213 
56 33.0213 55 55.0213 34 55 57 33.0213 55 
82.9787 34 55 55 35 54.0213 55 34.0213 55 
54.0213 35 55 82 35 54.0213 82.9787 35 55 
54 36 54.0213 54 35.0213 55 53.0213 36 55 
80.9787 36 55 81 35.9787 55 82 36 54.0213 
81.0213 36 55 82.9787 36 55 54 37 54.0213 
53.0213 37 55 80 37 54.0213 80.9787 37 55 
82 37 54.0213 81.0213 37 55 83 36.0213 55 
83 37 54.0213 84 37 54.0213 84 36.0213 55 
85 37 54.0213 85 36.0213 55 85.9787 37 55 
54 38 54.0213 53.0213 38 55 78.9787 38 55 
79 37.9787 55 80 37.9787 55 82 37.9787 55 
83 37.9787 55 84 37.9787 55 85 37.9787 55 
53 39 54.0213 53 38.0213 55 52.0213 39 55 
78 39 54.0213 78.9787 39 55 52.0213 40 55 
60.9787 40 55 61 39.9787 55 62 39.9787 55 
63 39.9787 55 64 39.9787 55 65 39.9787 55 
66 39.9787 55 67 39.9787 55 68 39.9787 55 
69 39.9787 55 70 40 54.0213 69.0213 40 55 
70.9787 40 55 71 39.9787 55 72 40 54.0213 
71.0213 40 55 76.9787 40 55 77 39.9787 55 
78 39.9787 55 52.0213 41 55 60 41 54.0213 
60.9787 41 55 70 41 54.0213 69.0213 41 55 
71 40.0213 55 71 41 54.0213 72 41 54.0213 
76 41 54.0213 76.9787 41 55 53 41.9787 55 
54 41.9787 55 55 41.9787 55 56 41.9787 55 
57 41.9787 55 58 41.9787 55 59 41.9787 55 
60 41.9787 55 70 41.9787 55 71 41.9787 55 
71.0213 42 55 72 42 54.0213 73 41.9787 55 
72.9787 42 55 74 41.9787 55 75 41.9787 55 
76 41.9787 55 70 43 54.0213 70 42.0213 55 
69.0213 43 55 71 43 54.0213 71 42.0213 55 
72 43 54.0213 73 42.0213 55 73 43 54.0213 
74 43 54.0213 74 42.0213 55 74.9787 43 55 
70 44 54.0213 69.0213 44 55 70.9787 44 55 
71 43.9787 55 72 43.9787 55 73 43.9787 55 
74 43.9787 55 68 45 54.0213 68 44.0213 55 
67.0213 45 55 69 45 54.0213 69 44.0213 55 
70 44.9787 55 69.9787 45 55 68 46 54.0213 
67.0213 46 55 68.9787 46 55 69 45.9787 55 
66 47 54.0213 66 46.0213 55 65.0213 47 55 
67 47 54.0213 67 46.0213 55 68 46.9787 55 
67.9787 47 55 66 48 54.0213 65.0213 48 55 
66.9787 48 55 67 47.9787 55 66 48.9787 55 
73 24 55.0213 73 23.0213 56 72.0213 24 56 
74 24 55.0213 74 23.0213 56 75 24 55.0213 
75 23.0213 56 76 24 55.0213 76 23.0213 56 
77 24 55.0213 77 23.0213 56 78 24 55.0213 
78 23.0213 56 78.9787 24 56 72 25 55.0213 
72 24.0213 56 71.0213 25 56 73 25 55.0213 
78 25 55.0213 78.9787 25 56 67 26 55.0213 
67 25.0213 56 66.0213 26 56 68 26 55.0213 
68 25.0213 56 69 26 55.0213 69 25.0213 56 
70 26 55.0213 70 25.0213 56 71 26 55.0213 
71 25.0213 56 72 26 55.0213 73 26 55.0213 
79 26 55.0213 79 25.0213 56 80 26 55.0213 
[...]
POINT_DATA 8130
SCALARS scalars float
LOOKUP_TABLE default
1 1 1 1 1 1 1 1 1 
1 1 1 1 1 1 1 1 1 
1 1 1 1 1 1 1 1 1 
1 1 1 1 1 1 1 1 1 
1 1 1 1 1 1 1 1 1 
1 1 1 1 1 1 1 1 1 
1 1 1 1 1 1 1 1 1 
1 1 1 1 1 1 1 1 1 
1 1 1 1 1 1 1 1 1 
1 1 1 1 1 1 1 1 1 
1 1 1 1 1 1 1 1 1 
1 1 1 1 1 1 1 1 1 
1 1 1 1 1 1 1 1 1 
1 1 1 1 1 1 1 1 1 
1 1 1 1 1 1 1 1 1 
1 1 1 1 1 1 1 1 1 
1 1 1 1 1 1 1 1 1 
1 1 1 1 1 1 1 1 1 
1 1 1 1 1 1 1 1 1 
1 1 1 1 1 1 1 1 1 
1 1 1 1 1 1 1 1 1 
1 1 1 1 1 1 1 1 1 
1 1 1 1 1 1 1 1 1 
1 1 1 1 1 1 1 1 1 
1 1 1 1 1 1 1 1 1 
1 1 1 1 1 1 1 1 1 
1 1 1 1 1 1 1 1 1 
1 1 1 1 1 1 1 1 1 
1 1 1 1 1 1 1 1 1 
1 1 1 1 1 1 1 1 1 
1 1 1 1 1 1 1 1 1 
1 1 1 1 1 1 1 1 1 
1 1 1 1 1 1 1 1 1 
1 1 1 1 1 1 1 1 1 
1 1 1 1 1 1 1 1 1 
1 1 1 1 1 1 1 1 1 
1 1 1 1 1 1 1 1 1 
1 1 1 1 1 1 1 1 1 
1 1 1 1 1 1 1 1 1 
1 1 1 1 1 1 1 1 1 
1 1 1 1 1 1 1 1 1 
1 1 1 1 1 1 1 1 1 
1 1 1 1 1 1 1 1 1 
1 1 1 1 1 1 1 1 1 
1 1 1 1 1 1 1 1 1 
1 1 1 1 1 1 1 1 1 
1 1 1 1 1 1 1 1 1 
1 1 1 1 1 1 1 1 1 
1 1 1 1 1 1 1 1 1 
1 1 1 1 1 1 1 1 1 
1 1 1 1 1 1 1 1 1 
1 1 1 1 1 1 1 1 1 
1 1 1 1 1 1 1 1 1 
1 1 1 1 1 1 1 1 1 
1 1 1 1 1 1 1 1 1 
1 1 1 1 1 1 1 1 1 
1 1 1 1 1 1 1 1 1 
1 1 1 1 1 1 1 1 1 
1 1 1 1 1 1 1 1 1 
1 1 1 1 1 1 1 1 1 
1 1 1 1 1 1 1 1 1 
1 1 1 1 1 1 1 1 1 
1 1 1 1 1 1 1 1 1 
1 1 1 1 1 1 1 1 1 
1 1 1 1 1 1 1 1 1 
1 1 1 1 1 1 1 1 1 
1 1 1 1 1 1 1 1 1 
1 1 1 1 1 1 1 1 1 
1 1 1 1 1 1 1 1 1 
1 1 1 1 1 1 1 1 1 
1 1 1 1 1 1 1 1 1 
1 1 1 1 1 1 1 1 1 
1 1 1 1 1 1 1 1 1 
1 1 1 1 1 1 1 1 1 
1 1 1 1 1 1 1 1 1 
1 1 1 1 1 1 1 1 1 
1 1 1 1 1 1 1 1 1 
1 1 1 1 1 1 1 1 1 
1 1 1 1 1 1 1 1 1 
1 1 1 1 1 1 1 1 1 
1 1 1 1 1 1 1 1 1 
1 1 1 1 1 1 1 1 1 
1 1 1 1 1 1 1 1 1 
1 1 1 1 1 1 1 1 1 
1 1 1 1 1 1 1 1 1 
1 1 1 1 1 1 1 1 1 
1 1 1 1 1 1 1 1 1 
1 1 1 1 1 1 1 1 1 
1 1 1 1 1 1 1 1 1 
1 1 1 1 1 1 1 1 1 
1 1 1 1 1 1 1 1 1 
1 1 1 1 1 1 1 1 1 
1 1 1 1 1 1 1 1 1 
1 1 1 1 1 1 1 1 1 
1 1 1 1 1 1 1 1 1 
1 1 1 1 1 1 1 1 1 
1 1 1 1 1 1 1 1 1 
1 1 1 1 1 1 1 1 1 
1 1 1 1 1 1 1 1 1 
1 1 1 1 1 1 1 1 1 
1 1 1 1 1 1 1 1 1 
1 1 1 1 1 1 1 1 1 
1 1 1 1 1 1 1 1 1 
1 1 1 1 1 1 1 1 1 
1 1 1 1 1 1 1 1 1 
1 1 1 1 1 1 1 1 1 
1 1 1 1 1 1 1 1 1 
1 1 1 1 1 1 1 1 1 
1 1 1 1 1 1 1 1 1 
1 1 1 1 1 1 1 1 1 
1 1 1 1 1 1 1 1 1 
1 1 1 1 1 1 1 1 1 
1 1 1 1 1 1 1 1 1 
1 1 1 1 1 1 1 1 1 
1 1 1 1 1 1 1 1 1 
1 1 1 1 1 1 1 1 1 
1 1 1 1 1 1 1 1 1 
1 1 1 1 1 1 1 1 1 
1 1 1 1 1 1 1 1 1 
1 1 1 1 1 1 1 1 1 
1 1 1 1 1 1 1 1 1 
1 1 1 1 1 1 1 1 1 
1 1 1 1 1 1 1 1 1 
1 1 1 1 1 1 1 1 1 
1 1 1 1 1 1 1 1 1 
1 1 1 1 1 1 1 1 1 
1 1 1 1 1 1 1 1 1 
1 1 1 1 1 1 1 1 1 
1 1 1 1 1 1 1 1 1 
1 1 1 1 1 1 1 1 1 
1 1 1 1 1 1 1 1 1 
1 1 1 1 1 1 1 1 1 
1 1 1 1 1 1 1 1 1 
1 1 1 1 1 1 1 1 1 
1 1 1 1 1 1 1 1 1 
1 1 1 1 1 1 1 1 1 
1 1 1 1 1 1 1 1 1 
1 1 1 1 1 1 1 1 1 
1 1 1 1 1 1 1 1 1 
1 1 1 1 1 1 1 1 1 
1 1 1 1 1 1 1 1 1 
1 1 1 1 1 1 1 1 1 
1 1 1 1 1 1 1 1 1 
1 1 1 1 1 1 1 1 1 
1 1 1 1 1 1 1 1 1 
1 1 1 1 1 1 1 1 1 
1 1 1 1 1 1 1 1 1 
1 1 1 1 1 1 1 1 1 
1 1 1 1 1 1 1 1 1 
1 1 1 1 1 1 1 1 1 
1 1 1 1 1 1 1 1 1 
1 1 1 1 1 1 1 1 1 
1 1 1 1 1 1 1 1 1 
1 1 1 1 1 1 1 1 1 
1 1 1 1 1 1 1 1 1 
1 1 1 1 1 1 1 1 1 
1 1 1 1 1 1 1 1 1 
1 1 1 1 1 1 1 1 1 
1 1 1 1 1 1 1 1 1 
1 1 1 1 1 1 1 1 1 
1 1 1 1 1 1 1 1 1 
1 1 1 1 1 1 1 1 1 
1 1 1 1 1 1 1 1 1 
1 1 1 1 1 1 1 1 1 
1 1 1 1 1 1 1 1 1 
1 1 1 1 1 1 1 1 1 
1 1 1 1 1 1 1 1 1 
1 1 1 1 1 1 1 1 1 
1 1 1 1 1 1 1 1 1 
1 1 1 1 1 1 1 1 1 
1 1 1 1 1 1 1 1 1 
1 1 1 1 1 1 1 1 1 
1 1 1 1 1 1 1 1 1 
1 1 1 1 1 1 1 1 1 
1 1 1 1 1 1 1 1 1 
1 1 1 1 1 1 1 1 1 
1 1 1 1 1 1 1 1 1 
1 1 1 1 1 1 1 1 1 
1 1 1 1 1 1 1 1 1 
1 1 1 1 1 1 1 1 1 
1 1 1 1 1 1 1 1 1 
1 1 1 1 1 1 1 1 1 
1 1 1 1 1 1 1 1 1 
1 1 1 1 1 1 1 1 1 
1 1 1 1 1 1 1 1 1 
1 1 1 1 1 1 1 1 1 
1 1 1 1 1 1 1 1 1 
1 1 1 1 1 1 1 1 1 
1 1 1 1 1 1 1 1 1 
1 1 1 1 1 1 1 1 1 
1 1 1 1 1 1 1 1 1 
1 1 1 1 1 1 1 1 1 
1 1 1 1 1 1 1 1 1 
1 1 1 1 1 1 1 1 1 
1 1 1 1 1 1 1 1 1 
1 1 1 1 1 1 1 1 1 
1 1 1 1 1 1 1 1 1 
1 1 1 1 1 1 1 1 1 
1 1 1 1 1 1 1 1 1 
1 1 1 1 1 1 1 1 1 
1 1 1 1 1 1 1 1 1 
1 1 1 1 1 1 1 1 1 
1 1 1 1 1 1 1 1 1 
1 1 1 1 1 1 1 1 1 
1 1 1 1 1 1 1 1 1 
1 1 1 1 1 1 1 1 1 
1 1 1 1 1 1 1 1 1 
1 1 1 1 1 1 1 1 1 
1 1 1 1 1 1 1 1 1 
1 1 1 1 1 1 1 1 1 
1 1 1 1 1 1 1 1 1 
1 1 1 1 1 1 1 1 1 
1 1 1 1 1 1 1 1 1 
1 1 1 1 1 1 1 1 1 
1 1 1 1 1 1 1 1 1 
1 1 1 1 1 1 1 1 1 
1 1 1 1 1 1 1 1 1 
1 1 1 1 1 1 1 1 1 
1 1 1 1 1 1 1 1 1 
1 1 1 1 1 1 1 1 1 
1 1 1 1 1 1 1 1 1 
1 1 1 1 1 1 1 1 1 
1 1 1 1 1 1 1 1 1 
1 1 1 1 1 1 1 1 1 
1 1 1 1 1 1 1 1 1 
1 1 1 1 1 1 1 1 1 
1 1 1 1 1 1 1 1 1 
1 1 1 1 1 1 1 1 1 
1 1 1 1 1 1 1 1 1 
1 1 1 1 1 1 1 1 1 
1 1 1 1 1 1 1 1 1 
1 1 1 1 1 1 1 1 1 
1 1 1 1 1 1 1 1 1 
1 1 1 1 1 1 1 1 1 
1 1 1 1 1 1 1 1 1 
1 1 1 1 1 1 1 1 1 
1 1 1 1 1 1 1 1 1 
1 1 1 1 1 1 1 1 1 
1 1 1 1 1 1 1 1 1 
1 1 1 1 1 1 1 1 1 
1 1 1 1 1 1 1 1 1 
1 1 1 1 1 1 1 1 1 
1 1 1 1 1 1 1 1 1 
1 1 1 1 1 1 1 1 1 
1 1 1 1 1 1 1 1 1 
1 1 1 1 1 1 1 1 1 
1 1 1 1 1 1 1 1 1 
1 1 1 1 1 1 1 1 1 
1 1 1 1 1 1 1 1 1 
1 1 1 1 1 1 1 1 1 
1 1 1 1 1 1 1 1 1 
1 1 1 1 1 1 1 1 1 
1 1 1 1 1 1 1 1 1 
1 1 1 1 1 1 1 1 1 
1 1 1 1 1 1 1 1 1 
1 1 1 1 1 1 1 1 1 
1 1 1 1 1 1 1 1 1 
1 1 1 1 1 1 1 1 1 
1 1 1 1 1 1 1 1 1 
1 1 1 1 1 1 1 1 1 
1 1 1 1 1 1 1 1 1 
1 1 1 1 1 1 1 1 1 
1 1 1 1 1 1 1 1 1 
1 1 1 1 1 1 1 1 1 
1 1 1 1 1 1 1 1 1 
1 1 1 1 1 1 1 1 1 
1 1 1 1 1 1 1 1 1 
1 1 1 1 1 1 1 1 1 
1 1 1 1 1 1 1 1 1 
1 1 1 1 1 1 1 1 1 
1 1 1 1 1 1 1 1 1 
1 1 1 1 1 1 1 1 1 
1 1 1 1 1 1 1 1 1 
1 1 1 1 1 1 1 1 1 
1 1 1 1 1 1 1 1 1 
1 1 1 1 1 1 1 1 1 
1 1 1 1 1 1 1 1 1 
1 1 1 1 1 1 1 1 1 
1 1 1 1 1 1 1 1 1 
1 1 1 1 1 1 1 1 1 
1 1 1 1 1 1 1 1 1 
1 1 1 1 1 1 1 1 1 
1 1 1 1 1 1 1 1 1 
1 1 1 1 1 1 1 1 1 
1 1 1 1 1 1 1 1 1 
1 1 1 1 1 1 1 1 1 
1 1 1 1 1 1 1 1 1 
1 1 1 1 1 1 1 1 1 
1 1 1 1 1 1 1 1 1 
1 1 1 1 1 1 1 1 1 
1 1 1 1 1 1 1 1 1 
1 1 1 1 1 1 1 1 1 
1 1 1 1 1 1 1 1 1 
1 1 1 1 1 1 1 1 1 
1 1 1 1 1 1 1 1 1 
1 1 1 1 1 1 1 1 1 
1 1 1 1 1 1 1 1 1 
1 1 1 1 1 1 1 1 1 
1 1 1 1 1 1 1 1 1 
1 1 1 1 1 1 1 1 1 
1 1 1 1 1 1 1 1 1 
1 1 1 1 1 1 1 1 1 
1 1 1 1 1 1 1 1 1 
1 1 1 1 1 1 1 1 1 
1 1 1 1 1 1 1 1 1 
1 1 1 1 1 1 1 1 1 
1 1 1 1 1 1 1 1 1 
1 1 1 1 1 1 1 1 1 
1 1 1 1 1 1 1 1 1 
1 1 1 1 1 1 1 1 1 
1 1 1 1 1 1 1 1 1 
1 1 1 1 1 1 1 1 1 
1 1 1 1 1 1 1 1 1 
1 1 1 1 1 1 1 1 1 
1 1 1 1 1 1 1 1 1 
1 1 1 1 1 1 1 1 1 
1 1 1 1 1 1 1 1 1 
1 1 1 1 1 1 1 1 1 
1 1 1 1 1 1 1 1 1 
1 1 1 1 1 1 1 1 1 
1 1 1 1 1 1 1 1 1 
1 1 1 1 1 1 1 1 1 
1 1 1 1 1 1 1 1 1 
1 1 1 1 1 1 1 1 1 
1 1 1 1 1 1 1 1 1 
1 1 1 1 1 1 1 1 1 
1 1 1 1 1 1 1 1 1 
1 1 1 1 1 1 1 1 1 
1 1 1 1 1 1 1 1 1 
1 1 1 1 1 1 1 1 1 
1 1 1 1 1 1 1 1 1 
1 1 1 1 1 1 1 1 1 
1 1 1 1 1 1 1 1 1 
1 1 1 1 1 1 1 1 1 
1 1 1 1 1 1 1 1 1 
1 1 1 1 1 1 1 1 1 
1 1 1 1 1 1 1 1 1 
1 1 1 1 1 1 1 1 1 
1 1 1 1 1 1 1 1 1 
1 1 1 1 1 1 1 1 1 
1 1 1 1 1 1 1 1 1 
1 1 1 1 1 1 1 1 1 
1 1 1 1 1 1 1 1 1 
1 1 1 1 1 1 1 1 1 
1 1 1 1 1 1 1 1 1 
1 1 1 1 1 1 1 1 1 
1 1 1 1 1 1 1 1 1 
1 1 1 1 1 1 1 1 1 
1 1 1 1 1 1 1 1 1 
1 1 1 1 1 1 1 1 1 
1 1 1 1 1 1 1 1 1 
1 1 1 1 1 1 1 1 1 
1 1 1 1 1 1 1 1 1 
1 1 1 1 1 1 1 1 1 
1 1 1 1 1 1 1 1 1 
1 1 1 1 1 1 1 1 1 
1 1 1 1 1 1 1 1 1 
1 1 1 1 1 1 1 1 1 
1 1 1 1 1 1 1 1 1 
1 1 1 1 1 1 1 1 1 
1 1 1 1 1 1 1 1 1 
1 1 1 1 1 1 1 1 1 
1 1 1 1 1 1 1 1 1 
1 1 1 1 1 1 1 1 1 
1 1 1 1 1 1 1 1 1 
1 1 1 1 1 1 1 1 1 
1 1 1 1 1 1 1 1 1 
1 1 1 1 1 1 1 1 1 
1 1 1 1 1 1 1 1 1 
1 1 1 1 1 1 1 1 1 
1 1 1 1 1 1 1 1 1 
1 1 1 1 1 1 1 1 1 
1 1 1 1 1 1 1 1 1 
1 1 1 1 1 1 1 1 1 
1 1 1 1 1 1 1 1 1 
1 1 1 1 1 1 1 1 1 
1 1 1 1 1 1 1 1 1 
1 1 1 1 1 1 1 1 1 
1 1 1 1 1 1 1 1 1 
1 1 1 1 1 1 1 1 1 
1 1 1 1 1 1 1 1 1 
1 1 1 1 1 1 1 1 1 
1 1 1 1 1 1 1 1 1 
1 1 1 1 1 1 1 1 1 
1 1 1 1 1 1 1 1 1 
1 1 1 1 1 1 1 1 1 
1 1 1 1 1 1 1 1 1 
1 1 1 1 1 1 1 1 1 
1 1 1 1 1 1 1 1 1 
1 1 1 1 1 1 1 1 1 
1 1 1 1 1 1 1 1 1 
1 1 1 1 1 1 1 1 1 
1 1 1 1 1 1 1 1 1 
1 1 1 1 1 1 1 1 1 
1 1 1 1 1 1 1 1 1 
1 1 1 1 1 1 1 1 1 
1 1 1 1 1 1 1 1 1 
1 1 1 1 1 1 1 1 1 
1 1 1 1 1 1 1 1 1 
1 1 1 1 1 1 1 1 1 
1 1 1 1 1 1 1 1 1 
1 1 1 1 1 1 1 1 1 
1 1 1 1 1 1 1 1 1 
1 1 1 1 1 1 1 1 1 
1 1 1 1 1 1 1 1 1 
1 1 1 1 1 1 1 1 1 
1 1 1 1 1 1 1 1 1 
1 1 1 1 1 1 1 1 1 
1 1 1 1 1 1 1 1 1 
1 1 1 1 1 1 1 1 1 
1 1 1 1 1 1 1 1 1 
1 1 1 1 1 1 1 1 1 
1 1 1 1 1 1 1 1 1 
1 1 1 1 1 1 1 1 1 
1 1 1 1 1 1 1 1 1 
1 1 1 1 1 1 1 1 1 
1 1 1 1 1 1 1 1 1 
1 1 1 1 1 1 1 1 1 
1 1 1 1 1 1 1 1 1 
1 1 1 1 1 1 1 1 1 
1 1 1 1 1 1 1 1 1 
1 1 1 1 1 1 1 1 1 
1 1 1 1 1 1 1 1 1 
1 1 1 1 1 1 1 1 1 
1 1 1 1 1 1 1 1 1 
1 1 1 1 1 1 1 1 1 
1 1 1 1 1 1 1 1 1 
1 1 1 1 1 1 1 1 1 
1 1 1 1 1 1 1 1 1 
1 1 1 1 1 1 1 1 1 
1 1 1 1 1 1 1 1 1 
1 1 1 1 1 1 1 1 1 
1 1 1 1 1 1 1 1 1 
1 1 1 1 1 1 1 1 1 
1 1 1 1 1 1 1 1 1 
1 1 1 1 1 1 1 1 1 
1 1 1 1 1 1 1 1 1 
1 1 1 1 1 1 1 1 1 
1 1 1 1 1 1 1 1 1 
1 1 1 1 1 1 1 1 1 
1 1 1 1 1 1 1 1 1 
1 1 1 1 1 1 1 1 1 
1 1 1 1 1 1 1 1 1 
1 1 1 1 1 1 1 1 1 
1 1 1 1 1 1 1 1 1 
1 1 1 1 1 1 1 1 1 
1 1 1 1 1 1 1 1 1 
1 1 1 1 1 1 1 1 1 
1 1 1 1 1 1 1 1 1 
1 1 1 1 1 1 1 1 1 
1 1 1 1 1 1 1 1 1 
1 1 1 1 1 1 1 1 1 
1 1 1 1 1 1 1 1 1 
1 1 1 1 1 1 1 1 1 
1 1 1 1 1 1 1 1 1 
1 1 1 1 1 1 1 1 1 
1 1 1 1 1 1 1 1 1 
1 1 1 1 1 1 1 1 1 
1 1 1 1 1 1 1 1 1 
1 1 1 1 1 1 1 1 1 
1 1 1 1 1 1 1 1 1 
1 1 1 1 1 1 1 1 1 
1 1 1 1 1 1 1 1 1 
1 1 1 1 1 1 1 1 1 
1 1 1 1 1 1 1 1 1 
1 1 1 1 1 1 1 1 1 
1 1 1 1 1 1 1 1 1 
1 1 1 1 1 1 1 1 1 
1 1 1 1 1 1 1 1 1 
1 1 1 1 1 1 1 1 1 
1 1 1 1 1 1 1 1 1 
1 1 1 1 1 1 1 1 1 
1 1 1 1 1 1 1 1 1 
1 1 1 1 1 1 1 1 1 
1 1 1 1 1 1 1 1 1 
1 1 1 1 1 1 1 1 1 
1 1 1 1 1 1 1 1 1 
1 1 1 1 1 1 1 1 1 
1 1 1 1 1 1 1 1 1 
1 1 1 1 1 1 1 1 1 
1 1 1 1 1 1 1 1 1 
1 1 1 1 1 1 1 1 1 
1 1 1 1 1 1 1 1 1 
1 1 1 1 1 1 1 1 1 
1 1 1 1 1 1 1 1 1 
1 1 1 1 1 1 1 1 1 
1 1 1 1 1 1 1 1 1 
1 1 1 1 1 1 1 1 1 
1 1 1 1 1 1 1 1 1 
1 1 1 1 1 1 1 1 1 
1 1 1 1 1 1 1 1 1 
1 1 1 1 1 1 1 1 1 
1 1 1 1 1 1 1 1 1 
1 1 1 1 1 1 1 1 1 
1 1 1 1 1 1 1 1 1 
1 1 1 1 1 1 1 1 1 
1 1 1 1 1 1 1 1 1 
1 1 1 1 1 1 1 1 1 
1 1 1 1 1 1 1 1 1 
1 1 1 1 1 1 1 1 1 
1 1 1 1 1 1 1 1 1 
1 1 1 1 1 1 1 1 1 
1 1 1 1 1 1 1 1 1 
1 1 1 1 1 1 1 1 1 
1 1 1 1 1 1 1 1 1 
1 1 1 1 1 1 1 1 1 
1 1 1 1 1 1 1 1 1 
1 1 1 1 1 1 1 1 1 
1 1 1 1 1 1 1 1 1 
1 1 1 1 1 1 1 1 1 
1 1 1 1 1 1 1 1 1 
1 1 1 1 1 1 1 1 1 
1 1 1 1 1 1 1 1 1 
1 1 1 1 1 1 1 1 1 
1 1 1 1 1 1 1 1 1 
1 1 1 1 1 1 1 1 1 
1 1 1 1 1 1 1 1 1 
1 1 1 1 1 1 1 1 1 
1 1 1 1 1 1 1 1 1 
1 1 1 1 1 1 1 1 1 
1 1 1 1 1 1 1 1 1 
1 1 1 1 1 1 1 1 1 
1 1 1 1 1 1 1 1 1 
1 1 1 1 1 1 1 1 1 
1 1 1 1 1 1 1 1 1 
1 1 1 1 1 1 1 1 1 
1 1 1 1 1 1 1 1 1 
1 1 1 1 1 1 1 1 1 
1 1 1 1 1 1 1 1 1 
1 1 1 1 1 1 1 1 1 
1 1 1 1 1 1 1 1 1 
1 1 1 1 1 1 1 1 1 
1 1 1 1 1 1 1 1 1 
1 1 1 1 1 1 1 1 1 
1 1 1 1 1 1 1 1 1 
1 1 1 1 1 1 1 1 1 
1 1 1 1 1 1 1 1 1 
1 1 1 1 1 1 1 1 1 
1 1 1 1 1 1 1 1 1 
1 1 1 1 1 1 1 1 1 
1 1 1 1 1 1 1 1 1 
1 1 1 1 1 1 1 1 1 
1 1 1 1 1 1 1 1 1 
1 1 1 1 1 1 1 1 1 
1 1 1 1 1 1 1 1 1 
1 1 1 1 1 1 1 1 1 
1 1 1 1 1 1 1 1 1 
1 1 1 1 1 1 1 1 1 
1 1 1 1 1 1 1 1 1 
1 1 1 1 1 1 1 1 1 
1 1 1 1 1 1 1 1 1 
1 1 1 1 1 1 1 1 1 
1 1 1 1 1 1 1 1 1 
1 1 1 1 1 1 1 1 1 
1 1 1 1 1 1 1 1 1 
1 1 1 1 1 1 1 1 1 
1 1 1 1 1 1 1 1 1 
1 1 1 1 1 1 1 1 1 
1 1 1 1 1 1 1 1 1 
1 1 1 1 1 1 1 1 1 
1 1 1 1 1 1 1 1 1 
1 1 1 1 1 1 1 1 1 
1 1 1 1 1 1 1 1 1 
1 1 1 1 1 1 1 1 1 
1 1 1 1 1 1 1 1 1 
1 1 1 1 1 1 1 1 1 
1 1 1 1 1 1 1 1 1 
1 1 1 1 1 1 1 1 1 
1 1 1 1 1 1 1 1 1 
1 1 1 1 1 1 1 1 1 
1 1 1 1 1 1 1 1 1 
1 1 1 1 1 1 1 1 1 
1 1 1 1 1 1 1 1 1 
1 1 1 1 1 1 1 1 1 
1 1 1 1 1 1 1 1 1 
1 1 1 1 1 1 1 1 1 
1 1 1 1 1 1 1 1 1 
1 1 1 1 1 1 1 1 1 
1 1 1 1 1 1 1 1 1 
1 1 1 1 1 1 1 1 1 
1 1 1 1 1 1 1 1 1 
1 1 1 1 1 1 1 1 1 
1 1 1 1 1 1 1 1 1 
1 1 1 1 1 1 1 1 1 
1 1 1 1 1 1 1 1 1 
1 1 1 1 1 1 1 1 1 
1 1 1 1 1 1 1 1 1 
1 1 1 1 1 1 1 1 1 
1 1 1 1 1 1 1 1 1 
1 1 1 1 1 1 1 1 1 
1 1 1 1 1 1 1 1 1 
1 1 1 1 1 1 1 1 1 
1 1 1 1 1 1 1 1 1 
1 1 1 1 1 1 1 1 1 
1 1 1 1 1 1 1 1 1 
1 1 1 1 1 1 1 1 1 
1 1 1 1 1 1 1 1 1 
1 1 1 1 1 1 1 1 1 
1 1 1 1 1 1 1 1 1 
1 1 1 1 1 1 1 1 1 
1 1 1 1 1 1 1 1 1 
1 1 1 1 1 1 1 1 1 
1 1 1 1 1 1 1 1 1 
1 1 1 1 1 1 1 1 1 
1 1 1 1 1 1 1 1 1 
1 1 1 1 1 1 1 1 1 
1 1 1 1 1 1 1 1 1 
1 1 1 1 1 1 1 1 1 
1 1 1 1 1 1 1 1 1 
1 1 1 1 1 1 1 1 1 
1 1 1 1 1 1 1 1 1 
1 1 1 1 1 1 1 1 1 
1 1 1 1 1 1 1 1 1 
1 1 1 1 1 1 1 1 1 
1 1 1 1 1 1 1 1 1 
1 1 1 1 1 1 1 1 1 
1 1 1 1 1 1 1 1 1 
1 1 1 1 1 1 1 1 1 
1 1 1 1 1 1 1 1 1 
1 1 1 1 1 1 1 1 1 
1 1 1 1 1 1 1 1 1 
1 1 1 1 1 1 1 1 1 
1 1 1 1 1 1 1 1 1 
1 1 1 1 1 1 1 1 1 
1 1 1 1 1 1 1 1 1 
1 1 1 1 1 1 1 1 1 
1 1 1 1 1 1 1 1 1 
1 1 1 1 1 1 1 1 1 
1 1 1 1 1 1 1 1 1 
1 1 1 1 1 1 1 1 1 
1 1 1 1 1 1 1 1 1 
1 1 1 1 1 1 1 1 1 
1 1 1 1 1 1 1 1 1 
1 1 1 1 1 1 1 1 1 
1 1 1 1 1 1 1 1 1 
1 1 1 1 1 1 1 1 1 
1 1 1 1 1 1 1 1 1 
1 1 1 1 1 1 1 1 1 
1 1 1 1 1 1 1 1 1 
1 1 1 1 1 1 1 1 1 
1 1 1 1 1 1 1 1 1 
1 1 1 1 1 1 1 1 1 
1 1 1 1 1 1 1 1 1 
1 1 1 1 1 1 1 1 1 
1 1 1 1 1 1 1 1 1 
1 1 1 1 1 1 1 1 1 
1 1 1 1 1 1 1 1 1 
1 1 1 1 1 1 1 1 1 
1 1 1 1 1 1 1 1 1 
1 1 1 1 1 1 1 1 1 
1 1 1 1 1 1 1 1 1 
1 1 1 1 1 1 1 1 1 
1 1 1 1 1 1 1 1 1 
1 1 1 1 1 1 1 1 1 
1 1 1 1 1 1 1 1 1 
1 1 1 1 1 1 1 1 1 
1 1 1 1 1 1 1 1 1 
1 1 1 1 1 1 1 1 1 
1 1 1 1 1 1 1 1 1 
1 1 1 1 1 1 1 1 1 
1 1 1 1 1 1 1 1 1 
1 1 1 1 1 1 1 1 1 
1 1 1 1 1 1 1 1 1 
1 1 1 1 1 1 1 1 1 
1 1 1 1 1 1 1 1 1 
1 1 1 1 1 1 1 1 1 
1 1 1 1 1 1 1 1 1 
1 1 1 1 1 1 1 1 1 
1 1 1 1 1 1 1 1 1 
1 1 1 1 1 1 1 1 1 
1 1 1 1 1 1 1 1 1 
1 1 1 1 1 1 1 1 1 
1 1 1 1 1 1 1 1 1 
1 1 1 1 1 1 1 1 1 
1 1 1 1 1 1 1 1 1 
1 1 1 1 1 1 1 1 1 
1 1 1 1 1 1 1 1 1 
1 1 1 1 1 1 1 1 1 
1 1 1 1 1 1 1 1 1 
1 1 1 1 1 1 1 1 1 
1 1 1 1 1 1 1 1 1 
1 1 1 1 1 1 1 1 1 
1 1 1 1 1 1 1 1 1 
1 1 1 1 1 1 1 1 1 
1 1 1 1 1 1 1 1 1 
1 1 1 1 1 1 1 1 1 
1 1 1 1 1 1 1 1 1 
1 1 1 1 1 1 1 1 1 
1 1 1 1 1 1 1 1 1 
1 1 1 1 1 1 1 1 1 
1 1 1 1 1 1 1 1 1 
1 1 1 1 1 1 1 1 1 
1 1 1 1 1 1 1 1 1 
1 1 1 1 1 1 1 1 1 
1 1 1 1 1 1 1 1 1 
1 1 1 1 1 1 1 1 1 
1 1 1 1 1 1 1 1 1 
1 1 1 1 1 1 1 1 1 
1 1 1 1 1 1 1 1 1 
1 1 1 1 1 1 1 1 1 
1 1 1 1 1 1 1 1 1 
1 1 1 1 1 1 1 1 1 
1 1 1 1 1 1 1 1 1 
1 1 1 1 1 1 1 1 1 
1 1 1 1 1 1 1 1 1 
1 1 1 1 1 1 1 1 1 
1 1 1 1 1 1 1 1 1 
1 1 1 1 1 1 1 1 1 
1 1 1 1 1 1 1 1 1 
1 1 1 1 1 1 1 1 1 
1 1 1 1 1 1 1 1 1 
1 1 1 1 1 1 1 1 1 
1 1 1 1 1 1 1 1 1 
1 1 1 1 1 1 1 1 1 
1 1 1 1 1 1 1 1 1 
1 1 1 1 1 1 1 1 1 
1 1 1 1 1 1 1 1 1 
1 1 1 1 1 1 1 1 1 
1 1 1 1 1 1 1 1 1 
1 1 1 1 1 1 1 1 1 
1 1 1 1 1 1 1 1 1 
1 1 1 1 1 1 1 1 1 
1 1 1 1 1 1 1 1 1 
1 1 1 1 1 1 1 1 1 
1 1 1 1 1 1 1 1 1 
1 1 1 1 1 1 1 1 1 
1 1 1 1 1 1 1 1 1 
1 1 1 1 1 1 1 1 1 
1 1 1 1 1 1 1 1 1 
1 1 1 1 1 1 1 1 1 
1 1 1 1 1 1 1 1 1 
1 1 1 1 1 1 1 1 1 
1 1 1 1 1 1 1 1 1 
1 1 1 1 1 1 1 1 1 
1 1 1 1 1 1 1 1 1 
1 1 1 1 1 1 1 1 1 
1 1 1 1 1 1 1 1 1 
1 1 1 1 1 1 1 1 1 
1 1 1 1 1 1 1 1 1 
1 1 1 1 1 1 1 1 1 
1 1 1 1 1 1 1 1 1 
1 1 1 1 1 1 1 1 1 
1 1 1 1 1 1 1 1 1 
1 1 1 1 1 1 1 1 1 
1 1 1 1 1 1 1 1 1 
1 1 1 1 1 1 1 1 1 
1 1 1 1 1 1 1 1 1 
1 1 1 1 1 1 1 1 1 
1 1 1 1 1 1 1 1 1 
1 1 1 1 1 1 1 1 1 
1 1 1 1 1 1 1 1 1 
1 1 1 1 1 1 1 1 1 
1 1 1 1 1 1 1 1 1 
1 1 1 1 1 1 1 1 1 
1 1 1 1 1 1 1 1 1 
1 1 1 1 1 1 1 1 1 
1 1 1 1 1 1 1 1 1 
1 1 1 1 1 1 1 1 1 
1 1 1 1 1 1 1 1 1 
1 1 1 1 1 1 1 1 1 
1 1 1 1 1 1 1 1 1 
1 1 1 1 1 1 1 1 1 
1 1 1 1 1 1 1 1 1 
1 1 1 1 1 1 1 1 1 
1 1 1 1 1 1 1 1 1 
1 1 1 1 1 1 1 1 1 
1 1 1 1 1 1 1 1 1 
1 1 1 1 1 1 1 1 1 
1 1 1 1 1 1 1 1 1 
1 1 1 1 1 1 1 1 1 
1 1 1 1 1 1 1 1 1 
1 1 1 1 1 1 1 1 1 
1 1 1 1 1 1 1 1 1 
1 1 1 1 1 1 1 1 1 
1 1 1 1 1 1 1 1 1 
1 1 1 1 1 1 1 1 1 
1 1 1 1 1 1 1 1 1 
1 1 1 1 1 1 1 1 1 
1 1 1 1 1 1 1 1 1 
1 1 1 1 1 1 1 1 1 
1 1 1 1 1 1 1 1 1 
1 1 1 1 1 1 1 1 1 
1 1 1 1 1 1 1 1 1 
1 1 1 1 1 1 1 1 1 
1 1 1 1 1 1 1 1 1 
1 1 1 1 1 1 1 1 1 
1 1 1 1 1 1 1 1 1 
1 1 1 1 1 1 1 1 1 
1 1 1 1 1 1 1 1 1 
1 1 1 1 1 1 1 1 1 
1 1 1 1 1 1 1 1 1 
1 1 1 1 1 1 1 1 1 
1 1 1 1 1 1 1 1 1 
1 1 1 1 1 1 1 1 1 
1 1 1 1 1 1 1 1 1 
1 1 1 1 1 1 1 1 1 
1 1 1 1 1 1 1 1 1 
1 1 1 1 1 1 1 1 1 
1 1 1 1 1 1 1 1 1 
1 1 1 1 1 1 1 1 1 
1 1 1 1 1 1 1 1 1 
1 1 1 1 1 1 1 1 1 
1 1 1 1 1 1 1 1 1 
1 1 1 1 1 1 1 1 1 
1 1 1 1 1 1 1 1 1 
1 1 1 1 1 1 1 1 1 
1 1 1 1 1 1 1 1 1 
1 1 1 1 1 1 1 1 1 
1 1 1 1 1 1 1 1 1 
1 1 1 1 1 1 1 1 1 
1 1 1 1 1 1 1 1 1 
1 1 1 1 1 1 1 1 1 
1 1 1 1 1 1 1 1 1 
1 1 1 1 1 1 1 1 1 
1 1 1 1 1 1 1 1 1 
1 1 1 1 1 1 1 1 1 
1 1 1 1 1 1 1 1 1 
1 1 1 1 1 1 1 1 1 
1 1 1 1 1 1 1 1 1 
1 1 1 1 1 1 1 1 1 
1 1 1 1 1 1 1 1 1 
1 1 1 1 1 1 1 1 1 
1 1 1 1 1 1 1 1 1 
1 1 1 1 1 1 1 1 1 
1 1 1 1 1 1 1 1 1 
1 1 1 1 1 1 1 1 1 
1 1 1 1 1 1 1 1 1 
1 1 1 1 1 1 1 1 1 
1 1 1 1 1 1 1 1 1 
1 1 1 1 1 1 1 1 1 
1 1 1 1 1 1 1 1 1 
1 1 1 1 1 1 1 1 1 
1 1 1 1 1 1 1 1 1 
1 1 1 1 1 1 1 1 1 
1 1 1 1 1 1 1 1 1 
1 1 1 1 1 1 1 1 1 
1 1 1 1 1 1 1 1 1 
1 1 1 1 1 1 1 1 1 
1 1 1 1 1 1 1 1 1 
1 1 1 1 1 1 1 1 1 
1 1 1 1 1 1 1 1 1 
1 1 1 1 1 1 1 1 1 
1 1 1 1 1 1 1 1 1 
1 1 1 1 1 1 1 1 1 
1 1 1 1 1 1 1 1 1 
1 1 1 1 1 1 1 1 1 
1 1 1 1 1 1 1 1 1 
1 1 1 1 1 1 1 1 1 
1 1 1 1 1 1 1 1 1 
1 1 1 1 1 1 1 1 1 
1 1 1 1 1 1 1 1 1 
1 1 1 1 1 1 1 1 1 
1 1 1 1 1 1 1 1 1 
1 1 1 1 1 1 1 1 1 
1 1 1 1 1 1 1 1 1 
1 1 1 1 1 1 1 1 1 
1 1 1 1 1 1 1 1 1 
1 1 1 1 1 1 1 1 1 
1 1 1 1 1 1 1 1 1 
1 1 1 1 1 1 1 1 1 
1 1 1 1 1 1 1 1 1 
1 1 1 1 1 1 1 1 1 
1 1 1 1 1 1 1 1 1 
1 1 1 1 1 1 1 1 1 
1 1 1 1 1 1 1 1 1 
1 1 1 1 1 1 1 1 1 
1 1 1 1 1 1 1 1 1 
1 1 1 1 1 1 1 1 1 
1 1 1 1 1 1 1 1 1 
1 1 1 1 1 1 1 1 1 
1 1 1 1 1 1 1 1 1 
1 1 1 1 1 1 1 1 1 
1 1 1 1 1 1 1 1 1 
1 1 1 1 1 1 1 1 1 
1 1 1 1 1 1 1 1 1 
1 1 1 1 1 1 1 1 1 
1 1 1 1 1 1 1 1 1 
1 1 1 1 1 1 1 1 1 
1 1 1 1 1 1 1 1 1 
1 1 1 1 1 1 1 1 1 
1 1 1 1 1 1 1 1 1 
1 1 1 1 1 1 1 1 1 
1 1 1 1 1 1 1 1 1 
1 1 1 1 1 1 1 1 1 
1 1 1 1 1 1 1 1 1 
1 1 1 1 1 1 1 1 1 
1 1 1 1 1 1 1 1 1 
1 1 1 1 1 1 1 1 1 
1 1 1 1 1 1 1 1 1 
1 1 1 1 1 1 1 1 1 
1 1 1 1 1 1 1 1 1 
1 1 1 1 1 1 1 1 1 
1 1 1 1 1 1 1 1 1 
1 1 1 1 1 1 1 1 1 
1 1 1 1 1 1 1 1 1 
1 1 1 1 1 1 1 1 1 
1 1 1 1 1 1 1 1 1 
1 1 1 1 1 1 1 1 1 
1 1 1 1 1 1 1 1 1 
1 1 1 1 1 1 1 1 1 
1 1 1 1 1 1 1 1 1 
1 1 1 1 1 1 1 1 1 
1 1 1 1 1 1 1 1 1 
1 1 1 
NORMALS normals float
-0.021267 -0.021267 -0.999548 -0.0150431 -0.707027 -0.707027 -0.707027 -0.0150431 -0.707027 
0 0 -1 0 -0.699463 -0.714669 0 0 -1 
0 -0.699463 -0.714669 0 0 -1 0 -0.699463 -0.714669 
0 0 -1 0 -0.699463 -0.714669 0 0 -1 
0 -0.699463 -0.714669 0 0 -1 0 -0.699463 -0.714669 
0 0 -1 0 -0.699463 -0.714669 0 0 -1 
0 -0.699463 -0.714669 0 0 -1 0 -0.699463 -0.714669 
0 0 -1 0 -0.699463 -0.714669 0 0 -1 
0 -0.699463 -0.714669 0.0212718 0 -0.999774 0.015204 -0.699382 -0.714586 
0.707107 0 -0.707107 0 0 -1 -0.573167 -0.573167 -0.585627 
0.573167 0.573167 -0.585627 0.573167 0.573167 -0.585627 0 0.699463 -0.714669 
0 0.699463 -0.714669 0 0.699463 -0.714669 0 0.699463 -0.714669 
0 0.699463 -0.714669 0 0.699463 -0.714669 0 0.699463 -0.714669 
0 0.699463 -0.714669 0 0.699463 -0.714669 0 0.699463 -0.714669 
0.015204 0.699382 -0.714586 -0.021267 -0.021267 -0.999548 -0.0150431 -0.707027 -0.707027 
-0.707027 -0.0150431 -0.707027 0 0 -1 0 -0.699463 -0.714669 
0 0 -1 0 -0.699463 -0.714669 0 0 -1 
0 -0.699463 -0.714669 0 0 -1 0 -0.699463 -0.714669 
0 0 -1 0 -0.699463 -0.714669 0 0 -1 
0 -0.699463 -0.714669 0 0 -1 -0.573167 -0.573167 -0.585627 
0.021267 0.021267 -0.999548 0.707027 0.0150431 -0.707027 0 0 -1 
-0.573167 -0.573167 -0.585627 0.573167 0.573167 -0.585627 0.573167 0.573167 -0.585627 
0 0.699463 -0.714669 0 0.699463 -0.714669 0 0.699463 -0.714669 
0 0.699463 -0.714669 0 0.699463 -0.714669 0 0.699463 -0.714669 
0.0150431 0.707027 -0.707027 -0.021267 -0.021267 -0.999548 -0.0150431 -0.707027 -0.707027 
-0.707027 -0.0150431 -0.707027 0 0 -1 -0.573167 -0.573167 -0.585627 
0.021267 0.021267 -0.999548 0.707027 0.0150431 -0.707027 0 0.0212718 -0.999774 
-0.699382 0.015204 -0.714586 0.569073 0.581445 -0.581445 0.573167 0.573167 -0.585627 
0.0150431 0.707027 -0.707027 0 0.707107 -0.707107 -0.021267 -0.021267 -0.999548 
-0.0150431 -0.707027 -0.707027 -0.57735 -0.57735 -0.57735 0 -0.0212718 -0.999774 
0 -0.707107 -0.707107 0 -0.0212718 -0.999774 0 -0.707107 -0.707107 
0.021267 -0.021267 -0.999548 0.021267 -0.999548 -0.021267 0.999548 -0.021267 -0.021267 
-0.021267 -0.021267 -0.999548 -0.57735 -0.57735 -0.57735 -0.57735 -0.57735 -0.57735 
0 0 -1 0 0 -1 0 0 -1 
0.0212718 0 -0.999774 0.581445 -0.569073 -0.581445 -0.021267 -0.021267 -0.999548 
-0.0150431 -0.707027 -0.707027 -0.57735 -0.57735 -0.57735 0 -0.0212718 -0.999774 
0 -0.707107 -0.707107 0 -0.0212718 -0.999774 0 -0.707107 -0.707107 
0 -0.0212718 -0.999774 0 -0.707107 -0.707107 0 -0.0212718 -0.999774 
0 -0.707107 -0.707107 0 -0.0212718 -0.999774 0 -0.707107 -0.707107 
0 -0.0212718 -0.999774 -0.569073 -0.581445 -0.581445 0 0 -1 
0 0 -1 0 0 -1 0 0 -1 
0 0 -1 0.569073 -0.581445 -0.581445 0 -0.0212718 -0.999774 
0 -0.0212718 -0.999774 0 -0.707107 -0.707107 0 -0.0212718 -0.999774 