# vtk DataFile Version 3.0
vtk output
ASCII
DATASET POLYDATA
POINTS 5952 float
70 138 44.0667 70 137.067 45 69.0667 138 45 
70.9333 138 45 70 139 44.0667 69.0667 139 45 
70.9333 139 45 70 140 44.0667 69.0667 140 45 
70.9333 140 45 70 141 44.0667 69.0667 141 45 
70.9333 141 45 70 142 44.0667 69.0667 142 45 
70.9333 142 45 68 143 44.0667 68 142.067 45 
67.0667 143 45 69 143 44.0667 69 142.067 45 
70 143 44.0667 70.9333 143 45 68 144 44.0667 
67.0667 144 45 68.9333 144 45 69 143.933 45 
70 143.933 45 68 145 44.0667 67.0667 145 45 
68.9333 145 45 68 146 44.0667 67.0667 146 45 
68.9333 146 45 66 147 44.0667 66 146.067 45 
65.0667 147 45 67 147 44.0667 67 146.067 45 
68 147 44.0667 68.9333 147 45 66 148 44.0667 
65.0667 148 45 66.9333 148 45 67 147.933 45 
68 147.933 45 64 149 44.0667 64 148.067 45 
63.0667 149 45 65 149 44.0667 65 148.067 45 
66 149 44.0667 66.9333 149 45 64 150 44.0667 
63.0667 150 45 64.9333 150 45 65 149.933 45 
66 149.933 45 62 151 44.0667 62 150.067 45 
61.0667 151 45 63 151 44.0667 63 150.067 45 
64 151 44.0667 64.9333 151 45 62 152 44.0667 
61.0667 152 45 62.9333 152 45 63 151.933 45 
64 151.933 45 62 152.933 45 64 137 45.0667 
64 136.067 46 63.0667 137 46 64.9333 137 46 
63 138 45.0667 63 137.067 46 62.0667 138 46 
64 138 45.0667 65 137.067 46 65 138 45.0667 
66 138 45.0667 66 137.067 46 67 138 45.0667 
67 137.067 46 68 138 45.0667 68 137.067 46 
69 138 45.0667 69 137.067 46 70 137.067 46 
71 138 45.0667 71 137.067 46 72 138 45.0667 
72 137.067 46 73 138 45.0667 73 137.067 46 
74 138 45.0667 74 137.067 46 75 138 45.0667 
75 137.067 46 76 138 45.0667 76 137.067 46 
76.9333 138 46 62 139 45.0667 62 138.067 46 
61.0667 139 46 63 139 45.0667 64 139 45.0667 
65 139 45.0667 66 139 45.0667 67 139 45.0667 
68 139 45.0667 69 139 45.0667 71 139 45.0667 
72 139 45.0667 73 139 45.0667 74 139 45.0667 
75 139 45.0667 76 139 45.0667 76.9333 139 46 
61 140 45.0667 61 139.067 46 60.0667 140 46 
62 140 45.0667 63 140 45.0667 64 140 45.0667 
65 140 45.0667 66 140 45.0667 67 140 45.0667 
68 140 45.0667 69 140 45.0667 71 140 45.0667 
72 140 45.0667 73 140 45.0667 74 140 45.0667 
75 140 45.0667 76 140 45.0667 76.9333 140 46 
60 141 45.0667 60 140.067 46 59.0667 141 46 
61 141 45.0667 62 141 45.0667 63 141 45.0667 
64 141 45.0667 65 141 45.0667 66 141 45.0667 
67 141 45.0667 68 141 45.0667 69 141 45.0667 
71 141 45.0667 72 141 45.0667 73 141 45.0667 
74 141 45.0667 75 141 45.0667 75.9333 141 46 
76 140.933 46 59 142 45.0667 59 141.067 46 
58.0667 142 46 60 142 45.0667 61 142 45.0667 
62 142 45.0667 63 142 45.0667 64 142 45.0667 
65 142 45.0667 66 142 45.0667 67 142 45.0667 
68 142 45.0667 69 142 45.0667 71 142 45.0667 
72 142 45.0667 73 142 45.0667 74 142 45.0667 
74.9333 142 46 75 141.933 46 59 143 45.0667 
58.0667 143 46 60 143 45.0667 61 143 45.0667 
62 143 45.0667 63 143 45.0667 64 143 45.0667 
65 143 45.0667 66 143 45.0667 67 143 45.0667 
71 143 45.0667 72 143 45.0667 73 143 45.0667 
74 143 45.0667 74.9333 143 46 59 144 45.0667 
58.0667 144 46 60 144 45.0667 61 144 45.0667 
62 144 45.0667 63 144 45.0667 64 144 45.0667 
65 144 45.0667 66 144 45.0667 67 144 45.0667 
69 144 45.0667 70 144 45.0667 71 144 45.0667 
72 144 45.0667 73 144 45.0667 74 144 45.0667 
74.9333 144 46 59 145 45.0667 58.0667 145 46 
60 145 45.0667 61 145 45.0667 62 145 45.0667 
63 145 45.0667 64 145 45.0667 65 145 45.0667 
66 145 45.0667 67 145 45.0667 69 145 45.0667 
70 145 45.0667 71 145 45.0667 72 145 45.0667 
73 145 45.0667 74 145 45.0667 74.9333 145 46 
59 146 45.0667 58.0667 146 46 60 146 45.0667 
61 146 45.0667 62 146 45.0667 63 146 45.0667 
64 146 45.0667 65 146 45.0667 66 146 45.0667 
67 146 45.0667 69 146 45.0667 70 146 45.0667 
71 146 45.0667 72 146 45.0667 73 146 45.0667 
74 146 45.0667 74.9333 146 46 59 147 45.0667 
58.0667 147 46 60 147 45.0667 61 147 45.0667 
62 147 45.0667 63 147 45.0667 64 147 45.0667 
65 147 45.0667 69 147 45.0667 70 147 45.0667 
71 147 45.0667 72 147 45.0667 73 147 45.0667 
74 147 45.0667 74.9333 147 46 59 148 45.0667 
58.0667 148 46 60 148 45.0667 61 148 45.0667 
62 148 45.0667 63 148 45.0667 64 148 45.0667 
65 148 45.0667 67 148 45.0667 68 148 45.0667 
69 148 45.0667 70 148 45.0667 71 148 45.0667 
72 148 45.0667 73 148 45.0667 74 148 45.0667 
74.9333 148 46 59 149 45.0667 58.0667 149 46 
60 149 45.0667 61 149 45.0667 62 149 45.0667 
63 149 45.0667 67 149 45.0667 68 149 45.0667 
69 149 45.0667 70 149 45.0667 71 149 45.0667 
72 149 45.0667 73 149 45.0667 74 149 45.0667 
74.9333 149 46 59 150 45.0667 58.0667 150 46 
60 150 45.0667 61 150 45.0667 62 150 45.0667 
63 150 45.0667 65 150 45.0667 66 150 45.0667 
67 150 45.0667 68 150 45.0667 69 150 45.0667 
70 150 45.0667 71 150 45.0667 72 150 45.0667 
73 150 45.0667 74 150 45.0667 74.9333 150 46 
59 151 45.0667 58.0667 151 46 60 151 45.0667 
61 151 45.0667 65 151 45.0667 66 151 45.0667 
67 151 45.0667 68 151 45.0667 69 151 45.0667 
70 151 45.0667 71 151 45.0667 72 151 45.0667 
73 151 45.0667 73.9333 151 46 74 150.933 46 
59 152 45.0667 58.0667 152 46 60 152 45.0667 
61 152 45.0667 63 152 45.0667 64 152 45.0667 
65 152 45.0667 66 152 45.0667 67 152 45.0667 
68 152 45.0667 69 152 45.0667 70 152 45.0667 
71 152 45.0667 72 152 45.0667 72.9333 152 46 
73 151.933 46 58 153 45.0667 58 152.067 46 
57.0667 153 46 59 153 45.0667 60 153 45.0667 
61 153 45.0667 62 153 45.0667 63 153 45.0667 
64 153 45.0667 65 153 45.0667 66 153 45.0667 
67 153 45.0667 68 153 45.0667 69 153 45.0667 
70 153 45.0667 71 153 45.0667 71.9333 153 46 
72 152.933 46 57 154 45.0667 57 153.067 46 
56.0667 154 46 58 154 45.0667 59 154 45.0667 
60 154 45.0667 60.9333 154 46 61 153.933 46 
62 153.933 46 63 153.933 46 64 153.933 46 
65 153.933 46 66 153.933 46 67 153.933 46 
68 153.933 46 69 153.933 46 70 153.933 46 
71 153.933 46 57 155 45.0667 56.0667 155 46 
58 155 45.0667 59 155 45.0667 59.9333 155 46 
60 154.933 46 57 155.933 46 58 155.933 46 
59 155.933 46 63 137 46.0667 63 136.067 47 
62.0667 137 47 64 136.067 47 65 137 46.0667 
65 136.067 47 66 137 46.0667 66 136.067 47 
67 137 46.0667 67 136.067 47 68 137 46.0667 
68 136.067 47 69 137 46.0667 69 136.067 47 
70 137 46.0667 70 136.067 47 71 137 46.0667 
71 136.067 47 72 137 46.0667 72 136.067 47 
72.9333 137 47 62 138 46.0667 62 137.067 47 
61.0667 138 47 73 137.067 47 74 137.067 47 
75 137.067 47 76 137.067 47 76.9333 138 47 
60 139 46.0667 60 138.067 47 59.0667 139 47 
61 139 46.0667 61 138.067 47 76.9333 139 47 
60 140 46.0667 59.0667 140 47 76.9333 140 47 
59 141 46.0667 59 140.067 47 58.0667 141 47 
75.9333 141 47 76 140.933 47 58 142 46.0667 
58 141.067 47 57.0667 142 47 74.9333 142 47 
75 141.933 47 58 143 46.0667 57.0667 143 47 
74.9333 143 47 58 144 46.0667 57.0667 144 47 
74.9333 144 47 58 145 46.0667 57.0667 145 47 
74.9333 145 47 58 146 46.0667 57.0667 146 47 
74.9333 146 47 58 147 46.0667 57.0667 147 47 
74.9333 147 47 58 148 46.0667 57.0667 148 47 
74.9333 148 47 58 149 46.0667 57.0667 149 47 
74.9333 149 47 58 150 46.0667 57.0667 150 47 
74.9333 150 47 58 151 46.0667 57.0667 151 47 
73.9333 151 47 74 150.933 47 58 152 46.0667 
57.0667 152 47 72.9333 152 47 73 151.933 47 
57 153 46.0667 57 152.067 47 56.0667 153 47 
71.9333 153 47 72 152.933 47 56 154 46.0667 
56 153.067 47 55.0667 154 47 60.9333 154 47 
61 153.933 47 62 153.933 47 63 153.933 47 
64 153.933 47 65 153.933 47 66 153.933 47 
67 153.933 47 68 153.933 47 69 153.933 47 
70 153.933 47 71 153.933 47 56 154.933 47 
56.0667 155 47 59.9333 155 47 60 154.933 47 
57 155.933 47 58 155.933 47 59 155.933 47 
65 136 47.0667 65 135.067 48 64.0667 136 48 
66 136 47.0667 66 135.067 48 67 136 47.0667 
67 135.067 48 68 136 47.0667 68 135.067 48 
69 136 47.0667 69 135.067 48 70 136 47.0667 
70 135.067 48 71 136 47.0667 71 135.067 48 
72 136 47.0667 72 135.067 48 72.9333 136 48 
62 137 47.0667 62 136.067 48 61.0667 137 48 
63 137 47.9333 62.9333 137 48 63.0667 137 48 
64 136.067 48 72.9333 137 48 61 138 47.0667 
61 137.067 48 60.0667 138 48 63 137.067 48 
73 137.067 48 74 137.067 48 75 137.067 48 
76 137.067 48 76.9333 138 48 60 138.067 48 
59.0667 139 48 76.9333 139 48 59 140 47.0667 
59 139.067 48 58.0667 140 48 76.9333 140 48 
58 141 47.0667 58 140.067 48 57.0667 141 48 
75.9333 141 48 76 140.933 48 57 142 47.0667 
57 141.067 48 56.0667 142 48 74.9333 142 48 
75 141.933 48 57 143 47.0667 56.0667 143 48 
74.9333 143 48 57 144 47.0667 56.0667 144 48 
74.9333 144 48 57 145 47.0667 56.0667 145 48 
74.9333 145 48 57 146 47.0667 56.0667 146 48 
74.9333 146 48 57 147 47.0667 56.0667 147 48 
74.9333 147 48 57 148 47.0667 56.0667 148 48 
74.9333 148 48 57 149 47.0667 56.0667 149 48 
74.9333 149 48 57 150 47.0667 56.0667 150 48 
74.9333 150 48 56 151 47.0667 56 150.067 48 
55.0667 151 48 57 151 47.0667 73.9333 151 48 
74 150.933 48 56 151.933 48 56.0667 152 48 
57 152 47.0667 72.9333 152 48 73 151.933 48 
56.0667 153 48 71.9333 153 48 72 152.933 48 
56 154 47.9333 56.0667 154 48 61 154 47.0667 
62 154 47.0667 63 154 47.0667 64 154 47.0667 
65 154 47.0667 66 154 47.0667 67 154 47.0667 
68 154 47.0667 68.9333 154 48 69 153.933 48 
70 153.933 48 71 153.933 48 56.0667 155 48 
60 155 47.0667 61 155 47.0667 62 155 47.0667 
63 155 47.0667 64 155 47.0667 65 155 47.0667 
66 155 47.0667 67 155 47.0667 67.9333 155 48 
68 154.933 48 57 155.933 48 58 155.933 48 
59 155.933 48 60 155.933 48 61 155.933 48 
62 155.933 48 63 155.933 48 64 155.933 48 
65 155.933 48 66 155.933 48 67 155.933 48 
72 134 48.0667 72 133.067 49 71.0667 134 49 
72.9333 134 49 65 135 48.0667 65 134.067 49 
64.0667 135 49 66 135 48.0667 66 134.067 49 
67 135 48.0667 67 134.067 49 68 135 48.0667 
68 134.067 49 69 135 48.0667 69 134.067 49 
70 135 48.0667 70 134.067 49 71 135 48.0667 
71 134.067 49 72 135 48.0667 72.9333 135 49 
64.0667 136 49 72.9333 136 49 62 136.067 49 
61.0667 137 49 62.9333 137 49 64 136.067 49 
63.0667 137 49 73 136.067 49 73 137 48.0667 
74 137 48.0667 74 136.067 49 74.9333 137 49 
61 137.067 49 60.0667 138 49 63 137.067 49 
75 137.067 49 76 138 48.9333 75.9333 138 49 
60 138.067 49 59.0667 139 49 76 139 48.9333 
[...]
POINT_DATA 5952
SCALARS scalars float
LOOKUP_TABLE default
1 1 1 1 1 1 1 1 1 
1 1 1 1 1 1 1 1 1 
1 1 1 1 1 1 1 1 1 
1 1 1 1 1 1 1 1 1 
1 1 1 1 1 1 1 1 1 
1 1 1 1 1 1 1 1 1 
1 1 1 1 1 1 1 1 1 
1 1 1 1 1 1 1 1 1 
1 1 1 1 1 1 1 1 1 
1 1 1 1 1 1 1 1 1 
1 1 1 1 1 1 1 1 1 
1 1 1 1 1 1 1 1 1 
1 1 1 1 1 1 1 1 1 
1 1 1 1 1 1 1 1 1 
1 1 1 1 1 1 1 1 1 
1 1 1 1 1 1 1 1 1 
1 1 1 1 1 1 1 1 1 
1 1 1 1 1 1 1 1 1 
1 1 1 1 1 1 1 1 1 
1 1 1 1 1 1 1 1 1 
1 1 1 1 1 1 1 1 1 
1 1 1 1 1 1 1 1 1 
1 1 1 1 1 1 1 1 1 
1 1 1 1 1 1 1 1 1 
1 1 1 1 1 1 1 1 1 
1 1 1 1 1 1 1 1 1 
1 1 1 1 1 1 1 1 1 
1 1 1 1 1 1 1 1 1 
1 1 1 1 1 1 1 1 1 
1 1 1 1 1 1 1 1 1 
1 1 1 1 1 1 1 1 1 
1 1 1 1 1 1 1 1 1 
1 1 1 1 1 1 1 1 1 
1 1 1 1 1 1 1 1 1 
1 1 1 1 1 1 1 1 1 
1 1 1 1 1 1 1 1 1 
1 1 1 1 1 1 1 1 1 
1 1 1 1 1 1 1 1 1 
1 1 1 1 1 1 1 1 1 
1 1 1 1 1 1 1 1 1 
1 1 1 1 1 1 1 1 1 
1 1 1 1 1 1 1 1 1 
1 1 1 1 1 1 1 1 1 
1 1 1 1 1 1 1 1 1 
1 1 1 1 1 1 1 1 1 
1 1 1 1 1 1 1 1 1 
1 1 1 1 1 1 1 1 1 
1 1 1 1 1 1 1 1 1 
1 1 1 1 1 1 1 1 1 
1 1 1 1 1 1 1 1 1 
1 1 1 1 1 1 1 1 1 
1 1 1 1 1 1 1 1 1 
1 1 1 1 1 1 1 1 1 
1 1 1 1 1 1 1 1 1 
1 1 1 1 1 1 1 1 1 
1 1 1 1 1 1 1 1 1 
1 1 1 1 1 1 1 1 1 
1 1 1 1 1 1 1 1 1 
1 1 1 1 1 1 1 1 1 
1 1 1 1 1 1 1 1 1 
1 1 1 1 1 1 1 1 1 
1 1 1 1 1 1 1 1 1 
1 1 1 1 1 1 1 1 1 
1 1 1 1 1 1 1 1 1 
1 1 1 1 1 1 1 1 1 
1 1 1 1 1 1 1 1 1 
1 1 1 1 1 1 1 1 1 
1 1 1 1 1 1 1 1 1 
1 1 1 1 1 1 1 1 1 
1 1 1 1 1 1 1 1 1 
1 1 1 1 1 1 1 1 1 
1 1 1 1 1 1 1 1 1 
1 1 1 1 1 1 1 1 1 
1 1 1 1 1 1 1 1 1 
1 1 1 1 1 1 1 1 1 
1 1 1 1 1 1 1 1 1 
1 1 1 1 1 1 1 1 1 
1 1 1 1 1 1 1 1 1 
1 1 1 1 1 1 1 1 1 
1 1 1 1 1 1 1 1 1 
1 1 1 1 1 1 1 1 1 
1 1 1 1 1 1 1 1 1 
1 1 1 1 1 1 1 1 1 
1 1 1 1 1 1 1 1 1 
1 1 1 1 1 1 1 1 1 
1 1 1 1 1 1 1 1 1 
1 1 1 1 1 1 1 1 1 
1 1 1 1 1 1 1 1 1 
1 1 1 1 1 1 1 1 1 
1 1 1 1 1 1 1 1 1 
1 1 1 1 1 1 1 1 1 
1 1 1 1 1 1 1 1 1 
1 1 1 1 1 1 1 1 1 
1 1 1 1 1 1 1 1 1 
1 1 1 1 1 1 1 1 1 
1 1 1 1 1 1 1 1 1 
1 1 1 1 1 1 1 1 1 
1 1 1 1 1 1 1 1 1 
1 1 1 1 1 1 1 1 1 
1 1 1 1 1 1 1 1 1 
1 1 1 1 1 1 1 1 1 
1 1 1 1 1 1 1 1 1 
1 1 1 1 1 1 1 1 1 
1 1 1 1 1 1 1 1 1 
1 1 1 1 1 1 1 1 1 
1 1 1 1 1 1 1 1 1 
1 1 1 1 1 1 1 1 1 
1 1 1 1 1 1 1 1 1 
1 1 1 1 1 1 1 1 1 
1 1 1 1 1 1 1 1 1 
1 1 1 1 1 1 1 1 1 
1 1 1 1 1 1 1 1 1 
1 1 1 1 1 1 1 1 1 
1 1 1 1 1 1 1 1 1 
1 1 1 1 1 1 1 1 1 
1 1 1 1 1 1 1 1 1 
1 1 1 1 1 1 1 1 1 
1 1 1 1 1 1 1 1 1 
1 1 1 1 1 1 1 1 1 
1 1 1 1 1 1 1 1 1 
1 1 1 1 1 1 1 1 1 
1 1 1 1 1 1 1 1 1 
1 1 1 1 1 1 1 1 1 
1 1 1 1 1 1 1 1 1 
1 1 1 1 1 1 1 1 1 
1 1 1 1 1 1 1 1 1 
1 1 1 1 1 1 1 1 1 
1 1 1 1 1 1 1 1 1 
1 1 1 1 1 1 1 1 1 
1 1 1 1 1 1 1 1 1 
1 1 1 1 1 1 1 1 1 
1 1 1 1 1 1 1 1 1 
1 1 1 1 1 1 1 1 1 
1 1 1 1 1 1 1 1 1 
1 1 1 1 1 1 1 1 1 
1 1 1 1 1 1 1 1 1 
1 1 1 1 1 1 1 1 1 
1 1 1 1 1 1 1 1 1 
1 1 1 1 1 1 1 1 1 
1 1 1 1 1 1 1 1 1 
1 1 1 1 1 1 1 1 1 
1 1 1 1 1 1 1 1 1 
1 1 1 1 1 1 1 1 1 
1 1 1 1 1 1 1 1 1 
1 1 1 1 1 1 1 1 1 
1 1 1 1 1 1 1 1 1 
1 1 1 1 1 1 1 1 1 
1 1 1 1 1 1 1 1 1 
1 1 1 1 1 1 1 1 1 
1 1 1 1 1 1 1 1 1 
1 1 1 1 1 1 1 1 1 
1 1 1 1 1 1 1 1 1 
1 1 1 1 1 1 1 1 1 
1 1 1 1 1 1 1 1 1 
1 1 1 1 1 1 1 1 1 
1 1 1 1 1 1 1 1 1 
1 1 1 1 1 1 1 1 1 
1 1 1 1 1 1 1 1 1 
1 1 1 1 1 1 1 1 1 
1 1 1 1 1 1 1 1 1 
1 1 1 1 1 1 1 1 1 
1 1 1 1 1 1 1 1 1 
1 1 1 1 1 1 1 1 1 
1 1 1 1 1 1 1 1 1 
1 1 1 1 1 1 1 1 1 
1 1 1 1 1 1 1 1 1 
1 1 1 1 1 1 1 1 1 
1 1 1 1 1 1 1 1 1 
1 1 1 1 1 1 1 1 1 
1 1 1 1 1 1 1 1 1 
1 1 1 1 1 1 1 1 1 
1 1 1 1 1 1 1 1 1 
1 1 1 1 1 1 1 1 1 
1 1 1 1 1 1 1 1 1 
1 1 1 1 1 1 1 1 1 
1 1 1 1 1 1 1 1 1 
1 1 1 1 1 1 1 1 1 
1 1 1 1 1 1 1 1 1 
1 1 1 1 1 1 1 1 1 
1 1 1 1 1 1 1 1 1 
1 1 1 1 1 1 1 1 1 
1 1 1 1 1 1 1 1 1 
1 1 1 1 1 1 1 1 1 
1 1 1 1 1 1 1 1 1 
1 1 1 1 1 1 1 1 1 
1 1 1 1 1 1 1 1 1 
1 1 1 1 1 1 1 1 1 
1 1 1 1 1 1 1 1 1 
1 1 1 1 1 1 1 1 1 
1 1 1 1 1 1 1 1 1 
1 1 1 1 1 1 1 1 1 
1 1 1 1 1 1 1 1 1 
1 1 1 1 1 1 1 1 1 
1 1 1 1 1 1 1 1 1 
1 1 1 1 1 1 1 1 1 
1 1 1 1 1 1 1 1 1 
1 1 1 1 1 1 1 1 1 
1 1 1 1 1 1 1 1 1 
1 1 1 1 1 1 1 1 1 
1 1 1 1 1 1 1 1 1 
1 1 1 1 1 1 1 1 1 
1 1 1 1 1 1 1 1 1 
1 1 1 1 1 1 1 1 1 
1 1 1 1 1 1 1 1 1 
1 1 1 1 1 1 1 1 1 
1 1 1 1 1 1 1 1 1 
1 1 1 1 1 1 1 1 1 
1 1 1 1 1 1 1 1 1 
1 1 1 1 1 1 1 1 1 
1 1 1 1 1 1 1 1 1 
1 1 1 1 1 1 1 1 1 
1 1 1 1 1 1 1 1 1 
1 1 1 1 1 1 1 1 1 
1 1 1 1 1 1 1 1 1 
1 1 1 1 1 1 1 1 1 
1 1 1 1 1 1 1 1 1 
1 1 1 1 1 1 1 1 1 
1 1 1 1 1 1 1 1 1 
1 1 1 1 1 1 1 1 1 
1 1 1 1 1 1 1 1 1 
1 1 1 1 1 1 1 1 1 
1 1 1 1 1 1 1 1 1 
1 1 1 1 1 1 1 1 1 
1 1 1 1 1 1 1 1 1 
1 1 1 1 1 1 1 1 1 
1 1 1 1 1 1 1 1 1 
1 1 1 1 1 1 1 1 1 
1 1 1 1 1 1 1 1 1 
1 1 1 1 1 1 1 1 1 
1 1 1 1 1 1 1 1 1 
1 1 1 1 1 1 1 1 1 
1 1 1 1 1 1 1 1 1 
1 1 1 1 1 1 1 1 1 
1 1 1 1 1 1 1 1 1 
1 1 1 1 1 1 1 1 1 
1 1 1 1 1 1 1 1 1 
1 1 1 1 1 1 1 1 1 
1 1 1 1 1 1 1 1 1 
1 1 1 1 1 1 1 1 1 
1 1 1 1 1 1 1 1 1 
1 1 1 1 1 1 1 1 1 
1 1 1 1 1 1 1 1 1 
1 1 1 1 1 1 1 1 1 
1 1 1 1 1 1 1 1 1 
1 1 1 1 1 1 1 1 1 
1 1 1 1 1 1 1 1 1 
1 1 1 1 1 1 1 1 1 
1 1 1 1 1 1 1 1 1 
1 1 1 1 1 1 1 1 1 
1 1 1 1 1 1 1 1 1 
1 1 1 1 1 1 1 1 1 
1 1 1 1 1 1 1 1 1 
1 1 1 1 1 1 1 1 1 
1 1 1 1 1 1 1 1 1 
1 1 1 1 1 1 1 1 1 
1 1 1 1 1 1 1 1 1 
1 1 1 1 1 1 1 1 1 
1 1 1 1 1 1 1 1 1 
1 1 1 1 1 1 1 1 1 
1 1 1 1 1 1 1 1 1 
1 1 1 1 1 1 1 1 1 
1 1 1 1 1 1 1 1 1 
1 1 1 1 1 1 1 1 1 
1 1 1 1 1 1 1 1 1 
1 1 1 1 1 1 1 1 1 
1 1 1 1 1 1 1 1 1 
1 1 1 1 1 1 1 1 1 
1 1 1 1 1 1 1 1 1 
1 1 1 1 1 1 1 1 1 
1 1 1 1 1 1 1 1 1 
1 1 1 1 1 1 1 1 1 
1 1 1 1 1 1 1 1 1 
1 1 1 1 1 1 1 1 1 
1 1 1 1 1 1 1 1 1 
1 1 1 1 1 1 1 1 1 
1 1 1 1 1 1 1 1 1 
1 1 1 1 1 1 1 1 1 
1 1 1 1 1 1 1 1 1 
1 1 1 1 1 1 1 1 1 
1 1 1 1 1 1 1 1 1 
1 1 1 1 1 1 1 1 1 
1 1 1 1 1 1 1 1 1 
1 1 1 1 1 1 1 1 1 
1 1 1 1 1 1 1 1 1 
1 1 1 1 1 1 1 1 1 
1 1 1 1 1 1 1 1 1 
1 1 1 1 1 1 1 1 1 
1 1 1 1 1 1 1 1 1 
1 1 1 1 1 1 1 1 1 
1 1 1 1 1 1 1 1 1 
1 1 1 1 1 1 1 1 1 
1 1 1 1 1 1 1 1 1 
1 1 1 1 1 1 1 1 1 
1 1 1 1 1 1 1 1 1 
1 1 1 1 1 1 1 1 1 
1 1 1 1 1 1 1 1 1 
1 1 1 1 1 1 1 1 1 
1 1 1 1 1 1 1 1 1 
1 1 1 1 1 1 1 1 1 
1 1 1 1 1 1 1 1 1 
1 1 1 1 1 1 1 1 1 
1 1 1 1 1 1 1 1 1 
1 1 1 1 1 1 1 1 1 
1 1 1 1 1 1 1 1 1 
1 1 1 1 1 1 1 1 1 
1 1 1 1 1 1 1 1 1 
1 1 1 1 1 1 1 1 1 
1 1 1 1 1 1 1 1 1 
1 1 1 1 1 1 1 1 1 
1 1 1 1 1 1 1 1 1 
1 1 1 1 1 1 1 1 1 
1 1 1 1 1 1 1 1 1 
1 1 1 1 1 1 1 1 1 
1 1 1 1 1 1 1 1 1 
1 1 1 1 1 1 1 1 1 
1 1 1 1 1 1 1 1 1 
1 1 1 1 1 1 1 1 1 
1 1 1 1 1 1 1 1 1 
1 1 1 1 1 1 1 1 1 
1 1 1 1 1 1 1 1 1 
1 1 1 1 1 1 1 1 1 
1 1 1 1 1 1 1 1 1 
1 1 1 1 1 1 1 1 1 
1 1 1 1 1 1 1 1 1 
1 1 1 1 1 1 1 1 1 
1 1 1 1 1 1 1 1 1 
1 1 1 1 1 1 1 1 1 
1 1 1 1 1 1 1 1 1 
1 1 1 1 1 1 1 1 1 
1 1 1 1 1 1 1 1 1 
1 1 1 1 1 1 1 1 1 
1 1 1 1 1 1 1 1 1 
1 1 1 1 1 1 1 1 1 
1 1 1 1 1 1 1 1 1 
1 1 1 1 1 1 1 1 1 
1 1 1 1 1 1 1 1 1 
1 1 1 1 1 1 1 1 1 
1 1 1 1 1 1 1 1 1 
1 1 1 1 1 1 1 1 1 
1 1 1 1 1 1 1 1 1 
1 1 1 1 1 1 1 1 1 
1 1 1 1 1 1 1 1 1 
1 1 1 1 1 1 1 1 1 
1 1 1 1 1 1 1 1 1 
1 1 1 1 1 1 1 1 1 
1 1 1 1 1 1 1 1 1 
1 1 1 1 1 1 1 1 1 
1 1 1 1 1 1 1 1 1 
1 1 1 1 1 1 1 1 1 
1 1 1 1 1 1 1 1 1 
1 1 1 1 1 1 1 1 1 
1 1 1 1 1 1 1 1 1 
1 1 1 1 1 1 1 1 1 
1 1 1 1 1 1 1 1 1 
1 1 1 1 1 1 1 1 1 
1 1 1 1 1 1 1 1 1 
1 1 1 1 1 1 1 1 1 
1 1 1 1 1 1 1 1 1 
1 1 1 1 1 1 1 1 1 
1 1 1 1 1 1 1 1 1 
1 1 1 1 1 1 1 1 1 
1 1 1 1 1 1 1 1 1 
1 1 1 1 1 1 1 1 1 
1 1 1 1 1 1 1 1 1 
1 1 1 1 1 1 1 1 1 
1 1 1 1 1 1 1 1 1 
1 1 1 1 1 1 1 1 1 
1 1 1 1 1 1 1 1 1 
1 1 1 1 1 1 1 1 1 
1 1 1 1 1 1 1 1 1 
1 1 1 1 1 1 1 1 1 
1 1 1 1 1 1 1 1 1 
1 1 1 1 1 1 1 1 1 
1 1 1 1 1 1 1 1 1 
1 1 1 1 1 1 1 1 1 
1 1 1 1 1 1 1 1 1 
1 1 1 1 1 1 1 1 1 
1 1 1 1 1 1 1 1 1 
1 1 1 1 1 1 1 1 1 
1 1 1 1 1 1 1 1 1 
1 1 1 1 1 1 1 1 1 
1 1 1 1 1 1 1 1 1 
1 1 1 1 1 1 1 1 1 
1 1 1 1 1 1 1 1 1 
1 1 1 1 1 1 1 1 1 
1 1 1 1 1 1 1 1 1 
1 1 1 1 1 1 1 1 1 
1 1 1 1 1 1 1 1 1 
1 1 1 1 1 1 1 1 1 
1 1 1 1 1 1 1 1 1 
1 1 1 1 1 1 1 1 1 
1 1 1 1 1 1 1 1 1 
1 1 1 1 1 1 1 1 1 
1 1 1 1 1 1 1 1 1 
1 1 1 1 1 1 1 1 1 
1 1 1 1 1 1 1 1 1 
1 1 1 1 1 1 1 1 1 
1 1 1 1 1 1 1 1 1 
1 1 1 1 1 1 1 1 1 
1 1 1 1 1 1 1 1 1 
1 1 1 1 1 1 1 1 1 
1 1 1 1 1 1 1 1 1 
1 1 1 1 1 1 1 1 1 
1 1 1 1 1 1 1 1 1 
1 1 1 1 1 1 1 1 1 
1 1 1 1 1 1 1 1 1 
1 1 1 1 1 1 1 1 1 
1 1 1 1 1 1 1 1 1 
1 1 1 1 1 1 1 1 1 
1 1 1 1 1 1 1 1 1 
1 1 1 1 1 1 1 1 1 
1 1 1 1 1 1 1 1 1 
1 1 1 1 1 1 1 1 1 
1 1 1 1 1 1 1 1 1 
1 1 1 1 1 1 1 1 1 
1 1 1 1 1 1 1 1 1 
1 1 1 1 1 1 1 1 1 
1 1 1 1 1 1 1 1 1 
1 1 1 1 1 1 1 1 1 
1 1 1 1 1 1 1 1 1 
1 1 1 1 1 1 1 1 1 
1 1 1 1 1 1 1 1 1 
1 1 1 1 1 1 1 1 1 
1 1 1 1 1 1 1 1 1 
1 1 1 1 1 1 1 1 1 
1 1 1 1 1 1 1 1 1 
1 1 1 1 1 1 1 1 1 
1 1 1 1 1 1 1 1 1 
1 1 1 1 1 1 1 1 1 
1 1 1 1 1 1 1 1 1 
1 1 1 1 1 1 1 1 1 
1 1 1 1 1 1 1 1 1 
1 1 1 1 1 1 1 1 1 
1 1 1 1 1 1 1 1 1 
1 1 1 1 1 1 1 1 1 
1 1 1 1 1 1 1 1 1 
1 1 1 1 1 1 1 1 1 
1 1 1 1 1 1 1 1 1 
1 1 1 1 1 1 1 1 1 
1 1 1 1 1 1 1 1 1 
1 1 1 1 1 1 1 1 1 
1 1 1 1 1 1 1 1 1 
1 1 1 1 1 1 1 1 1 
1 1 1 1 1 1 1 1 1 
1 1 1 1 1 1 1 1 1 
1 1 1 1 1 1 1 1 1 
1 1 1 1 1 1 1 1 1 
1 1 1 1 1 1 1 1 1 
1 1 1 1 1 1 1 1 1 
1 1 1 1 1 1 1 1 1 
1 1 1 1 1 1 1 1 1 
1 1 1 1 1 1 1 1 1 
1 1 1 1 1 1 1 1 1 
1 1 1 1 1 1 1 1 1 
1 1 1 1 1 1 1 1 1 
1 1 1 1 1 1 1 1 1 
1 1 1 1 1 1 1 1 1 
1 1 1 1 1 1 1 1 1 
1 1 1 1 1 1 1 1 1 
1 1 1 1 1 1 1 1 1 
1 1 1 1 1 1 1 1 1 
1 1 1 1 1 1 1 1 1 
1 1 1 1 1 1 1 1 1 
1 1 1 1 1 1 1 1 1 
1 1 1 1 1 1 1 1 1 
1 1 1 1 1 1 1 1 1 
1 1 1 1 1 1 1 1 1 
1 1 1 1 1 1 1 1 1 
1 1 1 1 1 1 1 1 1 
1 1 1 1 1 1 1 1 1 
1 1 1 1 1 1 1 1 1 
1 1 1 1 1 1 1 1 1 
1 1 1 1 1 1 1 1 1 
1 1 1 1 1 1 1 1 1 
1 1 1 1 1 1 1 1 1 
1 1 1 1 1 1 1 1 1 
1 1 1 1 1 1 1 1 1 
1 1 1 1 1 1 1 1 1 
1 1 1 1 1 1 1 1 1 
1 1 1 1 1 1 1 1 1 
1 1 1 1 1 1 1 1 1 
1 1 1 1 1 1 1 1 1 
1 1 1 1 1 1 1 1 1 
1 1 1 1 1 1 1 1 1 
1 1 1 1 1 1 1 1 1 
1 1 1 1 1 1 1 1 1 
1 1 1 1 1 1 1 1 1 
1 1 1 1 1 1 1 1 1 
1 1 1 1 1 1 1 1 1 
1 1 1 1 1 1 1 1 1 
1 1 1 1 1 1 1 1 1 
1 1 1 1 1 1 1 1 1 
1 1 1 1 1 1 1 1 1 
1 1 1 1 1 1 1 1 1 
1 1 1 1 1 1 1 1 1 
1 1 1 1 1 1 1 1 1 
1 1 1 1 1 1 1 1 1 
1 1 1 1 1 1 1 1 1 
1 1 1 1 1 1 1 1 1 
1 1 1 1 1 1 1 1 1 
1 1 1 1 1 1 1 1 1 
1 1 1 1 1 1 1 1 1 
1 1 1 1 1 1 1 1 1 
1 1 1 1 1 1 1 1 1 
1 1 1 1 1 1 1 1 1 
1 1 1 1 1 1 1 1 1 
1 1 1 1 1 1 1 1 1 
1 1 1 1 1 1 1 1 1 
1 1 1 1 1 1 1 1 1 
1 1 1 1 1 1 1 1 1 
1 1 1 1 1 1 1 1 1 
1 1 1 1 1 1 1 1 1 
1 1 1 1 1 1 1 1 1 
1 1 1 1 1 1 1 1 1 
1 1 1 1 1 1 1 1 1 
1 1 1 1 1 1 1 1 1 
1 1 1 1 1 1 1 1 1 
1 1 1 1 1 1 1 1 1 
1 1 1 1 1 1 1 1 1 
1 1 1 1 1 1 1 1 1 
1 1 1 1 1 1 1 1 1 
1 1 1 1 1 1 1 1 1 
1 1 1 1 1 1 1 1 1 
1 1 1 1 1 1 1 1 1 
1 1 1 1 1 1 1 1 1 
1 1 1 1 1 1 1 1 1 
1 1 1 1 1 1 1 1 1 
1 1 1 1 1 1 1 1 1 
1 1 1 1 1 1 1 1 1 
1 1 1 1 1 1 1 1 1 
1 1 1 1 1 1 1 1 1 
1 1 1 1 1 1 1 1 1 
1 1 1 1 1 1 1 1 1 
1 1 1 1 1 1 1 1 1 
1 1 1 1 1 1 1 1 1 
1 1 1 1 1 1 1 1 1 
1 1 1 1 1 1 1 1 1 
1 1 1 1 1 1 1 1 1 
1 1 1 1 1 1 1 1 1 
1 1 1 1 1 1 1 1 1 
1 1 1 1 1 1 1 1 1 
1 1 1 1 1 1 1 1 1 
1 1 1 1 1 1 1 1 1 
1 1 1 1 1 1 1 1 1 
1 1 1 1 1 1 1 1 1 
1 1 1 1 1 1 1 1 1 
1 1 1 1 1 1 1 1 1 
1 1 1 1 1 1 1 1 1 
1 1 1 1 1 1 1 1 1 
1 1 1 1 1 1 1 1 1 
1 1 1 1 1 1 1 1 1 
1 1 1 1 1 1 1 1 1 
1 1 1 1 1 1 1 1 1 
1 1 1 1 1 1 1 1 1 
1 1 1 1 1 1 1 1 1 
1 1 1 1 1 1 1 1 1 
1 1 1 1 1 1 1 1 1 
1 1 1 1 1 1 1 1 1 
1 1 1 1 1 1 1 1 1 
1 1 1 1 1 1 1 1 1 
1 1 1 1 1 1 1 1 1 
1 1 1 1 1 1 1 1 1 
1 1 1 1 1 1 1 1 1 
1 1 1 1 1 1 1 1 1 
1 1 1 1 1 1 1 1 1 
1 1 1 1 1 1 1 1 1 
1 1 1 1 1 1 1 1 1 
1 1 1 1 1 1 1 1 1 
1 1 1 1 1 1 1 1 1 
1 1 1 1 1 1 1 1 1 
1 1 1 1 1 1 1 1 1 
1 1 1 1 1 1 1 1 1 
1 1 1 1 1 1 1 1 1 
1 1 1 1 1 1 1 1 1 
1 1 1 1 1 1 1 1 1 
1 1 1 1 1 1 1 1 1 
1 1 1 1 1 1 1 1 1 
1 1 1 1 1 1 1 1 1 
1 1 1 1 1 1 1 1 1 
1 1 1 1 1 1 1 1 1 
1 1 1 1 1 1 1 1 1 
1 1 1 1 1 1 1 1 1 
1 1 1 1 1 1 1 1 1 
1 1 1 1 1 1 1 1 1 
1 1 1 1 1 1 1 1 1 
1 1 1 1 1 1 1 1 1 
1 1 1 1 1 1 1 1 1 
1 1 1 1 1 1 1 1 1 
1 1 1 1 1 1 1 1 1 
1 1 1 1 1 1 1 1 1 
1 1 1 1 1 1 1 1 1 
1 1 1 1 1 1 1 1 1 
1 1 1 1 1 1 1 1 1 
1 1 1 1 1 1 1 1 1 
1 1 1 1 1 1 1 1 1 
1 1 1 1 1 1 1 1 1 
1 1 1 1 1 1 1 1 1 
1 1 1 1 1 1 1 1 1 
1 1 1 1 1 1 1 1 1 
1 1 1 1 1 1 1 1 1 
1 1 1 1 1 1 1 1 1 
1 1 1 1 1 1 1 1 1 
1 1 1 1 1 1 1 1 1 
1 1 1 1 1 1 1 1 1 
1 1 1 1 1 1 1 1 1 
1 1 1 1 1 1 1 1 1 
1 1 1 1 1 1 1 1 1 
1 1 1 1 1 1 1 1 1 
1 1 1 1 1 1 1 1 1 
1 1 1 1 1 1 1 1 1 
1 1 1 1 1 1 1 1 1 
1 1 1 1 1 1 1 1 1 
1 1 1 1 1 1 1 1 1 
1 1 1 1 1 1 1 1 1 
1 1 1 1 1 1 1 1 1 
1 1 1 1 1 1 1 1 1 
1 1 1 1 1 1 1 1 1 
1 1 1 1 1 1 1 1 1 
1 1 1 1 1 1 1 1 1 
1 1 1 1 1 1 1 1 1 
1 1 1 1 1 1 1 1 1 
1 1 1 1 1 1 1 1 1 
1 1 1 1 1 1 1 1 1 
1 1 1 1 1 1 1 1 1 
1 1 1 1 1 1 1 1 1 
1 1 1 1 1 1 1 1 1 
1 1 1 1 1 1 1 1 1 
1 1 1 1 1 1 1 1 1 
1 1 1 1 1 1 1 1 1 
1 1 1 1 1 1 1 1 1 
1 1 1 1 1 1 1 1 1 
1 1 1 1 1 1 1 1 1 
1 1 1 1 1 1 1 1 1 
1 1 1 1 1 1 1 1 1 
1 1 1 1 1 1 1 1 1 
1 1 1 1 1 1 1 1 1 
1 1 1 1 1 1 1 1 1 
1 1 1 1 1 1 1 1 1 
1 1 1 1 1 1 1 1 1 
1 1 1 1 1 1 1 1 1 
1 1 1 1 1 1 1 1 1 
1 1 1 1 1 1 1 1 1 
1 1 1 1 1 1 1 1 1 
1 1 1 1 1 1 1 1 1 
1 1 1 1 1 1 1 1 1 
1 1 1 1 1 1 1 1 1 
1 1 1 1 1 1 1 1 1 
1 1 1 1 1 1 1 1 1 
1 1 1 1 1 1 1 1 1 
1 1 1 1 1 1 1 1 1 
1 1 1 1 1 1 1 1 1 
1 1 1 1 1 1 1 1 1 
1 1 1 1 1 1 1 1 1 
1 1 1 1 1 1 1 1 1 
1 1 1 1 1 1 1 1 1 
1 1 1 1 1 1 1 1 1 
1 1 1 1 1 1 1 1 1 
1 1 1 1 1 1 1 1 1 
1 1 1 1 1 1 1 1 1 
1 1 1 1 1 1 1 1 1 
1 1 1 1 1 1 1 1 1 
1 1 1 
NORMALS normals float
0 -0.066519 -0.997785 0 -0.997785 -0.066519 -0.681509 -0.0486792 -0.730189 
0.681509 -0.0486792 -0.730189 0 0 -1 -0.682318 0 -0.731055 
0.682318 0 -0.731055 0 0 -1 -0.682318 0 -0.731055 
0.682318 0 -0.731055 0 0 -1 -0.682318 0 -0.731055 
0.682318 0 -0.731055 0 0 -1 -0.563619 -0.563619 -0.603877 
0.682318 0 -0.731055 -0.0663723 -0.0663723 -0.995585 -0.0470882 -0.706322 -0.706322 
-0.706322 -0.0470882 -0.706322 0 0 -1 -0.563619 -0.563619 -0.603877 
0.0663723 0.0663723 -0.995585 0.706322 0.0470882 -0.706322 0 0 -1 
-0.682318 0 -0.731055 0.563619 0.563619 -0.603877 0.563619 0.563619 -0.603877 
0.0470882 0.706322 -0.706322 0 0 -1 -0.682318 0 -0.731055 
0.682318 0 -0.731055 0 0 -1 -0.563619 -0.563619 -0.603877 
0.682318 0 -0.731055 -0.0663723 -0.0663723 -0.995585 -0.0470882 -0.706322 -0.706322 
-0.706322 -0.0470882 -0.706322 0 0 -1 -0.563619 -0.563619 -0.603877 
0.0663723 0.0663723 -0.995585 0.706322 0.0470882 -0.706322 0 0 -1 
-0.563619 -0.563619 -0.603877 0.563619 0.563619 -0.603877 0.563619 0.563619 -0.603877 
0.0470882 0.706322 -0.706322 -0.0663723 -0.0663723 -0.995585 -0.0470882 -0.706322 -0.706322 
-0.706322 -0.0470882 -0.706322 0 0 -1 -0.563619 -0.563619 -0.603877 
0.0663723 0.0663723 -0.995585 0.706322 0.0470882 -0.706322 0 0 -1 
-0.563619 -0.563619 -0.603877 0.563619 0.563619 -0.603877 0.563619 0.563619 -0.603877 
0.0470882 0.706322 -0.706322 -0.0663723 -0.0663723 -0.995585 -0.0470882 -0.706322 -0.706322 
-0.706322 -0.0470882 -0.706322 0 0 -1 -0.563619 -0.563619 -0.603877 
0.0663723 0.0663723 -0.995585 0.706322 0.0470882 -0.706322 0 0.066519 -0.997785 
-0.681509 0.0486792 -0.730189 0.550823 0.590167 -0.590167 0.563619 0.563619 -0.603877 
0.0470882 0.706322 -0.706322 0 0.707107 -0.707107 0 -0.066519 -0.997785 
0 -0.997785 -0.066519 -0.550823 -0.590167 -0.590167 0.550823 -0.590167 -0.590167 
-0.0663723 -0.0663723 -0.995585 -0.57735 -0.57735 -0.57735 -0.57735 -0.57735 -0.57735 
0 0 -1 0.550823 -0.590167 -0.590167 0 -0.066519 -0.997785 
0 -0.066519 -0.997785 0 -0.707107 -0.707107 0 -0.066519 -0.997785 
0 -0.707107 -0.707107 0 -0.066519 -0.997785 0 -0.707107 -0.707107 
-0.681509 -0.0486792 -0.730189 0 -0.707107 -0.707107 0 -0.731055 -0.682318 
0.681509 -0.0486792 -0.730189 0 -0.707107 -0.707107 0 -0.066519 -0.997785 
0 -0.707107 -0.707107 0 -0.066519 -0.997785 0 -0.997785 -0.066519 
0 -0.066519 -0.997785 0 -0.997785 -0.066519 0 -0.066519 -0.997785 
0 -0.997785 -0.066519 0.0663723 -0.0663723 -0.995585 0.0663723 -0.995585 -0.0663723 
0.995585 -0.0663723 -0.0663723 -0.0663723 -0.0663723 -0.995585 -0.57735 -0.57735 -0.57735 
-0.57735 -0.57735 -0.57735 0 0 -1 0 0 -1 
0 0 -1 0 0 -1 0 0 -1 
0 0 -1 -0.682318 0 -0.731055 0.682318 0 -0.731055 
0 0 -1 0 0 -1 0 0 -1 
0 0 -1 0.066519 0 -0.997785 0.997785 0 -0.066519 
-0.0663723 -0.0663723 -0.995585 -0.57735 -0.57735 -0.57735 -0.57735 -0.57735 -0.57735 
0 0 -1 0 0 -1 0 0 -1 
0 0 -1 0 0 -1 0 0 -1 
0 0 -1 -0.682318 0 -0.731055 0.682318 0 -0.731055 
0 0 -1 0 0 -1 0 0 -1 
0 0 -1 0.0663723 0.0663723 -0.995585 0.995585 0.0663723 -0.0663723 
-0.0663723 -0.0663723 -0.995585 -0.57735 -0.57735 -0.57735 -0.57735 -0.57735 -0.57735 
0 0 -1 0 0 -1 0 0 -1 
0 0 -1 0 0 -1 0 0 -1 
0 0 -1 0 0 -1 -0.682318 0 -0.731055 
0.682318 0 -0.731055 0 0 -1 0 0 -1 
0 0 -1 0.0663723 0.0663723 -0.995585 0.706322 0.706322 -0.0470882 
0.706322 0.706322 -0.0470882 -0.0663723 -0.0663723 -0.995585 -0.57735 -0.57735 -0.57735 
-0.706322 -0.0470882 -0.706322 0 0 -1 0 0 -1 
0 0 -1 0 0 -1 0 0 -1 
0 0 -1 0 0 -1 0 0 -1 
0 -0.682318 -0.731055 -0.563619 -0.563619 -0.603877 0.682318 0 -0.731055 
0 0 -1 0 0 -1 0.066519 0 -0.997785 
0.730189 0.681509 -0.0486792 0.706322 0.706322 -0.0470882 -0.066519 0 -0.997785 
-0.707107 0 -0.707107 0 0 -1 0 0 -1 
0 0 -1 0 0 -1 0 0 -1 
0 0 -1 0 0 -1 -0.682318 0 -0.731055 
0.682318 0 -0.731055 0 0 -1 0 0 -1 
0.066519 0 -0.997785 0.997785 0 -0.066519 -0.066519 0 -0.997785 
-0.707107 0 -0.707107 0 0 -1 0 0 -1 
0 0 -1 0 0 -1 0 0 -1 
0 0 -1 0 0 -1 -0.682318 0 -0.731055 
0.563619 0.563619 -0.603877 0 0.682318 -0.731055 0 0 -1 
0 0 -1 0 0 -1 0.066519 0 -0.997785 
0.997785 0 -0.066519 -0.066519 0 -0.997785 -0.707107 0 -0.707107 
0 0 -1 0 0 -1 0 0 -1 
0 0 -1 0 0 -1 0 0 -1 
0 0 -1 -0.682318 0 -0.731055 0.682318 0 -0.731055 
0 0 -1 0 0 -1 0 0 -1 
0 0 -1 0.066519 0 -0.997785 0.997785 0 -0.066519 
-0.066519 0 -0.997785 -0.707107 0 -0.707107 0 0 -1 
0 0 -1 0 0 -1 0 0 -1 
0 0 -1 0 0 -1 0 -0.682318 -0.731055 
-0.563619 -0.563619 -0.603877 0.682318 0 -0.731055 0 0 -1 
0 0 -1 0 0 -1 0 0 -1 
0.066519 0 -0.997785 0.997785 0 -0.066519 -0.066519 0 -0.997785 
-0.707107 0 -0.707107 0 0 -1 0 0 -1 
0 0 -1 0 0 -1 0 0 -1 
-0.682318 0 -0.731055 0.682318 0 -0.731055 0 0 -1 
0 0 -1 0 0 -1 0 0 -1 
0.066519 0 -0.997785 0.997785 0 -0.066519 -0.066519 0 -0.997785 
-0.707107 0 -0.707107 0 0 -1 0 0 -1 
0 0 -1 0 0 -1 0 -0.682318 -0.731055 
-0.563619 -0.563619 -0.603877 0.563619 0.563619 -0.603877 0 0.682318 -0.731055 
0 0 -1 0 0 -1 0 0 -1 
0 0 -1 0 0 -1 0.066519 0 -0.997785 
0.997785 0 -0.066519 -0.066519 0 -0.997785 -0.707107 0 -0.707107 
0 0 -1 0 0 -1 0 0 -1 
-0.682318 0 -0.731055 0.682318 0 -0.731055 0 0 -1 
0 0 -1 0 0 -1 0 0 -1 
0 0 -1 0 0 -1 0.066519 0 -0.997785 
0.997785 0 -0.066519 -0.066519 0 -0.997785 -0.707107 0 -0.707107 
0 0 -1 0 0 -1 0 -0.682318 -0.731055 
-0.563619 -0.563619 -0.603877 0.563619 0.563619 -0.603877 0 0.682318 -0.731055 
0 0 -1 0 0 -1 0 0 -1 
0 0 -1 0 0 -1 0 0 -1 
0 0 -1 0.0663723 0.0663723 -0.995585 0.995585 0.0663723 -0.0663723 
-0.066519 0 -0.997785 -0.707107 0 -0.707107 0 0 -1 
-0.682318 0 -0.731055 0.682318 0 -0.731055 0 0 -1 
0 0 -1 0 0 -1 0 0 -1 
0 0 -1 0 0 -1 0 0 -1 
0.0663723 0.0663723 -0.995585 0.706322 0.706322 -0.0470882 0.706322 0.706322 -0.0470882 
-0.066519 0 -0.997785 -0.590167 -0.550823 -0.590167 0 0 -1 
-0.682318 0 -0.731055 0.563619 0.563619 -0.603877 0 0.682318 -0.731055 
0 0 -1 0 0 -1 0 0 -1 
0 0 -1 0 0 -1 0 0 -1 
0 0 -1 0.0663723 0.0663723 -0.995585 0.706322 0.706322 -0.0470882 
0.706322 0.706322 -0.0470882 -0.0663723 -0.0663723 -0.995585 -0.57735 -0.57735 -0.57735 
-0.57735 -0.57735 -0.57735 0 0 -1 0 0 -1 
0 0.066519 -0.997785 0 0.707107 -0.707107 0 0.066519 -0.997785 
0 0.066519 -0.997785 0 0.066519 -0.997785 0 0.066519 -0.997785 
0 0.066519 -0.997785 0 0.066519 -0.997785 0 0.066519 -0.997785 
0 0.066519 -0.997785 0.0663723 0.0663723 -0.995585 0.706322 0.706322 -0.0470882 
0.706322 0.706322 -0.0470882 -0.0663723 -0.0663723 -0.995585 -0.57735 -0.57735 -0.57735 
-0.706322 -0.0470882 -0.706322 0 0 -1 0 0 -1 
0.0663723 0.0663723 -0.995585 0.706322 0.706322 -0.0470882 0.681509 0.730189 -0.0486792 
0 0.997785 -0.066519 0 0.997785 -0.066519 0 0.997785 -0.066519 
0 0.997785 -0.066519 0 0.997785 -0.066519 0 0.997785 -0.066519 
0 0.997785 -0.066519 0 0.997785 -0.066519 0 0.997785 -0.066519 
0.0663723 0.995585 -0.0663723 -0.0663723 0.0663723 -0.995585 -0.995585 0.0663723 -0.0663723 
0 0.066519 -0.997785 0.0663723 0.0663723 -0.995585 0.706322 0.706322 -0.0470882 
0.706322 0.706322 -0.0470882 -0.0663723 0.995585 -0.0663723 0 0.997785 -0.066519 
0.0663723 0.995585 -0.0663723 -0.590167 -0.590167 -0.550823 -0.066519 -0.997785 0 
-0.590167 -0.590167 -0.550823 0 -1 0 0.550823 -0.590167 -0.590167 
0 -0.707107 -0.707107 0 -0.707107 -0.707107 0 -0.707107 -0.707107 
0 -0.707107 -0.707107 0 -0.707107 -0.707107 0 -0.707107 -0.707107 
0 -0.707107 -0.707107 0 -0.707107 -0.707107 0 -0.707107 -0.707107 