# vtk DataFile Version 3.0
vtk output
ASCII
DATASET POLYDATA
POINTS 4052 float
66 156 48.1111 66 155.111 49 65.1111 156 49 
66.8889 156 49 66 157 48.1111 65.1111 157 49 
67 156.111 49 67 157 48.1111 68 157 48.1111 
68 156.111 49 68.8889 157 49 66 157.889 49 
67 157.889 49 67.1111 158 49 68 158 48.1111 
68.8889 158 49 68 159 48.1111 67.1111 159 49 
68.8889 159 49 68 160 48.1111 67.1111 160 49 
68.8889 160 49 68 161 48.1111 67.1111 161 49 
68.8889 161 49 68 162 48.1111 67.1111 162 49 
68.8889 162 49 68 163 48.1111 67.1111 163 49 
69 162.111 49 69 163 48.1111 69.8889 163 49 
68 163.889 49 69 163.889 49 69 154 49.1111 
69 153.111 50 68.1111 154 50 70 154 49.1111 
70 153.111 50 70.8889 154 50 68 155 49.1111 
68 154.111 50 67.1111 155 50 69 155 49.1111 
70 155 49.1111 70.8889 155 50 63 156 49.1111 
63 155.111 50 62.1111 156 50 64 156 49.1111 
64 155.111 50 65 156 49.1111 65 155.111 50 
66 155.111 50 67 156 49.1111 67 155.111 50 
68 156 49.1111 69 156 49.1111 70 156 49.1111 
70.8889 156 50 62 157 49.1111 62 156.111 50 
61.1111 157 50 63 157 49.1111 64 157 49.1111 
65 157 49.1111 69 157 49.1111 70 157 49.1111 
70.8889 157 50 61 158 49.1111 61 157.111 50 
60.1111 158 50 62 158 49.1111 63 158 49.1111 
64 158 49.1111 65 158 49.1111 66 158 49.1111 
67 158 49.1111 69 158 49.1111 70 158 49.1111 
70.8889 158 50 60 159 49.1111 60 158.111 50 
59.1111 159 50 61 159 49.1111 62 159 49.1111 
63 159 49.1111 64 159 49.1111 65 159 49.1111 
66 159 49.1111 67 159 49.1111 69 159 49.1111 
70 159 49.1111 70.8889 159 50 60 159.889 50 
60.1111 160 50 61 160 49.1111 62 160 49.1111 
63 160 49.1111 64 160 49.1111 65 160 49.1111 
66 160 49.1111 67 160 49.1111 69 160 49.1111 
70 160 49.1111 70.8889 160 50 61 161 49.1111 
60.1111 161 50 62 161 49.1111 63 161 49.1111 
64 161 49.1111 65 161 49.1111 66 161 49.1111 
67 161 49.1111 69 161 49.1111 70 161 49.1111 
70.8889 161 50 61 162 49.1111 60.1111 162 50 
62 162 49.1111 63 162 49.1111 64 162 49.1111 
65 162 49.1111 66 162 49.1111 67 162 49.1111 
69 162 49.1111 70 162 49.1111 70.8889 162 50 
61 163 49.1111 60.1111 163 50 62 163 49.1111 
63 163 49.1111 64 163 49.1111 65 163 49.1111 
66 163 49.1111 67 163 49.1111 70 163 49.1111 
70.8889 163 50 61 163.889 50 62 163.889 50 
62.1111 164 50 63 164 49.1111 64 164 49.1111 
65 164 49.1111 66 164 49.1111 67 164 49.1111 
68 164 49.1111 69 164 49.1111 70 164 49.1111 
70.8889 164 50 63 165 49.1111 62.1111 165 50 
64 165 49.1111 65 165 49.1111 66 165 49.1111 
67 165 49.1111 68 165 49.1111 69 165 49.1111 
69.8889 165 50 70 164.889 50 63 165.889 50 
64 165.889 50 65 165.889 50 66 165.889 50 
67 165.889 50 68 165.889 50 69 165.889 50 
69 153.111 51 68.1111 154 51 70 154 50.8889 
69.8889 154 51 68 154.111 51 67.1111 155 51 
70 154.111 51 70.8889 155 51 63 155.111 51 
62.1111 156 51 64 155.111 51 65 155.111 51 
66 155.111 51 67 155.111 51 70.8889 156 51 
62 157 50.8889 62.1111 157 51 70.8889 157 51 
61 157.111 51 60.1111 158 51 62 157.111 51 
70.8889 158 51 60 159 50.8889 60.1111 159 51 
70.8889 159 51 60 159.111 51 59.1111 160 51 
60 160 50.1111 70.8889 160 51 60 161 50.1111 
59.1111 161 51 70.8889 161 51 60 162 50.1111 
59.1111 162 51 70.8889 162 51 60 162.889 51 
60.1111 163 51 70.8889 163 51 61 163.889 51 
62 164 50.1111 61.1111 164 51 70.8889 164 51 
62 164.889 51 62.1111 165 51 69.8889 165 51 
70 164.889 51 63 165.889 51 64 165.889 51 
65 165.889 51 66 165.889 51 67 165.889 51 
68 166 50.1111 67.1111 166 51 68.8889 166 51 
69 165.889 51 68 167 50.1111 67.1111 167 51 
68.8889 167 51 68 168 50.1111 67.1111 168 51 
68.8889 168 51 68 168.889 51 69 154 51.8889 
68 155 51.8889 69 155 51.8889 70 155 51.8889 
63 156 51.8889 64 156 51.8889 64.1111 156 52 
65 155.111 52 66 155.111 52 67 155.111 52 
68 155.111 52 69 155.111 52 70 155.111 52 
70.8889 156 52 63 157 51.8889 63.1111 157 52 
64 156.111 52 70.8889 157 52 61 158 51.8889 
62 158 51.8889 62.1111 158 52 63 157.111 52 
70.8889 158 52 61 159 51.8889 61.1111 159 52 
62 158.111 52 70.8889 159 52 60 160 51.8889 
60.1111 160 52 61 159.111 52 70.8889 160 52 
60 161 51.8889 60.1111 161 52 70.8889 161 52 
60 162 51.8889 60.1111 162 52 70.8889 162 52 
60.1111 163 52 70.8889 163 52 61 163.889 52 
62 163.889 52 62 164 51.8889 62.1111 164 52 
70.8889 164 52 62.1111 165 52 70 165 51.1111 
70.8889 165 52 63 166 51.1111 62.1111 166 52 
64 166 51.1111 65 166 51.1111 66 166 51.1111 
67 166 51.1111 69 166 51.1111 70 166 51.1111 
70.8889 166 52 62 167 51.1111 62 166.111 52 
61.1111 167 52 63 167 51.1111 64 167 51.1111 
65 167 51.1111 66 167 51.1111 67 167 51.1111 
69 167 51.1111 70 167 51.1111 70.8889 167 52 
62 167.889 52 62.1111 168 52 63 168 51.1111 
64 168 51.1111 65 168 51.1111 66 168 51.1111 
67 168 51.1111 69 168 51.1111 70 168 51.1111 
70.8889 168 52 63 169 51.1111 62.1111 169 52 
64 169 51.1111 65 169 51.1111 66 169 51.1111 
67 169 51.1111 68 169 51.1111 69 169 51.1111 
69.8889 169 52 70 168.889 52 63 169.889 52 
64 169.889 52 64.1111 170 52 65 170 51.1111 
66 170 51.1111 67 170 51.1111 68 170 51.1111 
68.8889 170 52 69 169.889 52 65 171 51.1111 
64.1111 171 52 66 171 51.1111 67 171 51.1111 
67.8889 171 52 68 170.889 52 65 171.889 52 
66 171.889 52 67 171.889 52 65 155.111 53 
64.1111 156 53 66 155.111 53 67 155.111 53 
68 155.111 53 69 155.111 53 70 155.111 53 
70.8889 156 53 64 156.111 53 63.1111 157 53 
70.8889 157 53 63 157.111 53 62.1111 158 53 
70.8889 158 53 62 158.111 53 61.1111 159 53 
70.8889 159 53 61 159.111 53 60.1111 160 53 
70.8889 160 53 60.1111 161 53 70.8889 161 53 
60.1111 162 53 70.8889 162 53 60.1111 163 53 
70.8889 163 53 61 163.889 53 62 163.889 53 
62.1111 164 53 70.8889 164 53 62.1111 165 53 
70.8889 165 53 62.1111 166 53 70.8889 166 53 
62 166.111 53 61.1111 167 53 70.8889 167 53 
62 168 52.1111 61.1111 168 53 70.8889 168 53 
62 169 52.1111 61.1111 169 53 69.8889 169 53 
70 168.889 53 62 169.889 53 63 169.889 53 
64 170 52.1111 63.1111 170 53 68.8889 170 53 
69 169.889 53 64 171 52.1111 63.1111 171 53 
68 171 52.1111 68.8889 171 53 64 171.889 53 
65 171.889 53 66 171.889 53 67 171.889 53 
68 172 52.1111 67.1111 172 53 68.8889 172 53 
68 173 52.1111 67.1111 173 53 69 172.111 53 
69 173 52.1111 69.8889 173 53 68 173.889 53 
69 173.889 53 70 175 52.1111 70 174.111 53 
69.1111 175 53 70.8889 175 53 70 176 52.1111 
69.1111 176 53 70.8889 176 53 70 177 52.1111 
69.1111 177 53 71 176.111 53 71 177 52.1111 
71.8889 177 53 70 177.889 53 71 177.889 53 
65 155.111 54 64.1111 156 54 66 155.111 54 
67 155.111 54 68 155.111 54 69 155.111 54 
70 155.111 54 71 156 53.1111 71 155.111 54 
72 156 53.1111 72 155.111 54 72.8889 156 54 
64 156.111 54 63.1111 157 54 71 157 53.1111 
72 157 53.1111 72.8889 157 54 63 157.111 54 
62.1111 158 54 71 158 53.1111 72 158 53.1111 
72.8889 158 54 62 158.111 54 61.1111 159 54 
71 159 53.1111 72 159 53.1111 72.8889 159 54 
61 159.111 54 60.1111 160 54 71 160 53.1111 
72 160 53.1111 72.8889 160 54 60.1111 161 54 
71 161 53.1111 72 161 53.1111 72.8889 161 54 
60.1111 162 54 71 162 53.1111 72 162 53.1111 
72.8889 162 54 60.1111 163 54 71 163 53.1111 
72 163 53.1111 72.8889 163 54 61 163.889 54 
62 163.889 54 62.1111 164 54 71 164 53.1111 
72 164 53.1111 72.8889 164 54 62.1111 165 54 
71 165 53.1111 71.8889 165 54 72 164.889 54 
62.1111 166 54 70.8889 166 54 71 165.889 54 
62 166.111 54 61.1111 167 54 70.8889 167 54 
61 168 53.1111 61 167.111 54 60.1111 168 54 
70.8889 168 54 61 169 53.1111 60.1111 169 54 
70 169 53.1111 70.8889 169 54 61 170 53.1111 
60.1111 170 54 62 170 53.1111 63 170 53.1111 
69 170 53.1111 70 170 53.1111 70.8889 170 54 
61 171 53.1111 60.1111 171 54 62 171 53.1111 
63 171 53.1111 69 171 53.1111 70 171 53.1111 
70.8889 171 54 61 172 53.1111 60.1111 172 54 
62 172 53.1111 63 172 53.1111 64 172 53.1111 
65 172 53.1111 66 172 53.1111 67 172 53.1111 
69 172 53.1111 70 172 53.1111 70.8889 172 54 
61 173 53.1111 60.1111 173 54 62 173 53.1111 
63 173 53.1111 64 173 53.1111 65 173 53.1111 
66 173 53.1111 67 173 53.1111 70 173 53.1111 
70.8889 173 54 61 174 53.1111 60.1111 174 54 
62 174 53.1111 63 174 53.1111 64 174 53.1111 
65 174 53.1111 66 174 53.1111 67 174 53.1111 
68 174 53.1111 69 174 53.1111 70 174 53.1111 
70.8889 174 54 61 175 53.1111 60.1111 175 54 
62 175 53.1111 63 175 53.1111 64 175 53.1111 
65 175 53.1111 66 175 53.1111 67 175 53.1111 
68 175 53.1111 69 175 53.1111 70.8889 175 54 
61 175.889 54 62 175.889 54 62.1111 176 54 
63 176 53.1111 64 176 53.1111 65 176 53.1111 
66 176 53.1111 67 176 53.1111 68 176 53.1111 
69 176 53.1111 71 175.111 54 71 176 53.1111 
72 176 53.1111 72 175.111 54 72.8889 176 54 
63 177 53.1111 62.1111 177 54 64 177 53.1111 
65 177 53.1111 66 177 53.1111 67 177 53.1111 
68 177 53.1111 69 177 53.1111 72 177 53.1111 
72.8889 177 54 63 177.889 54 64 177.889 54 
64.1111 178 54 65 178 53.1111 66 178 53.1111 
67 178 53.1111 68 178 53.1111 69 178 53.1111 
70 178 53.1111 71 178 53.1111 72 178 53.1111 
72.8889 178 54 65 179 53.1111 64.1111 179 54 
66 179 53.1111 67 179 53.1111 68 179 53.1111 
69 179 53.1111 70 179 53.1111 71 179 53.1111 
72 179 53.1111 72.8889 179 54 65 179.889 54 
66 179.889 54 66.1111 180 54 67 180 53.1111 
68 180 53.1111 69 180 53.1111 70 180 53.1111 
71 180 53.1111 72 180 53.1111 73 179.111 54 
73 180 53.1111 74 180 53.1111 74 179.111 54 
74.8889 180 54 67 181 53.1111 66.1111 181 54 
68 181 53.1111 69 181 53.1111 70 181 53.1111 
71 181 53.1111 72 181 53.1111 73 181 53.1111 
74 181 53.1111 74.8889 181 54 67 181.889 54 
68 181.889 54 68.1111 182 54 69 182 53.1111 
70 182 53.1111 71 182 53.1111 72 182 53.1111 
73 182 53.1111 74 182 53.1111 74.8889 182 54 
69 183 53.1111 68.1111 183 54 70 183 53.1111 
71 183 53.1111 72 183 53.1111 73 183 53.1111 
74 183 53.1111 74.8889 183 54 69 183.889 54 
70 183.889 54 70.1111 184 54 71 184 53.1111 
72 184 53.1111 73 184 53.1111 74 184 53.1111 
75 183.111 54 75 184 53.1111 76 184 53.1111 
76 183.111 54 76.8889 184 54 71 185 53.1111 
70.1111 185 54 72 185 53.1111 73 185 53.1111 
74 185 53.1111 75 185 53.1111 76 185 53.1111 
76.8889 185 54 71 185.889 54 72 185.889 54 
[...]
POINT_DATA 4052
SCALARS scalars float
LOOKUP_TABLE default
1 1 1 1 1 1 1 1 1 
1 1 1 1 1 1 1 1 1 
1 1 1 1 1 1 1 1 1 
1 1 1 1 1 1 1 1 1 
1 1 1 1 1 1 1 1 1 
1 1 1 1 1 1 1 1 1 
1 1 1 1 1 1 1 1 1 
1 1 1 1 1 1 1 1 1 
1 1 1 1 1 1 1 1 1 
1 1 1 1 1 1 1 1 1 
1 1 1 1 1 1 1 1 1 
1 1 1 1 1 1 1 1 1 
1 1 1 1 1 1 1 1 1 
1 1 1 1 1 1 1 1 1 
1 1 1 1 1 1 1 1 1 
1 1 1 1 1 1 1 1 1 
1 1 1 1 1 1 1 1 1 
1 1 1 1 1 1 1 1 1 
1 1 1 1 1 1 1 1 1 
1 1 1 1 1 1 1 1 1 
1 1 1 1 1 1 1 1 1 
1 1 1 1 1 1 1 1 1 
1 1 1 1 1 1 1 1 1 
1 1 1 1 1 1 1 1 1 
1 1 1 1 1 1 1 1 1 
1 1 1 1 1 1 1 1 1 
1 1 1 1 1 1 1 1 1 
1 1 1 1 1 1 1 1 1 
1 1 1 1 1 1 1 1 1 
1 1 1 1 1 1 1 1 1 
1 1 1 1 1 1 1 1 1 
1 1 1 1 1 1 1 1 1 
1 1 1 1 1 1 1 1 1 
1 1 1 1 1 1 1 1 1 
1 1 1 1 1 1 1 1 1 
1 1 1 1 1 1 1 1 1 
1 1 1 1 1 1 1 1 1 
1 1 1 1 1 1 1 1 1 
1 1 1 1 1 1 1 1 1 
1 1 1 1 1 1 1 1 1 
1 1 1 1 1 1 1 1 1 
1 1 1 1 1 1 1 1 1 
1 1 1 1 1 1 1 1 1 
1 1 1 1 1 1 1 1 1 
1 1 1 1 1 1 1 1 1 
1 1 1 1 1 1 1 1 1 
1 1 1 1 1 1 1 1 1 
1 1 1 1 1 1 1 1 1 
1 1 1 1 1 1 1 1 1 
1 1 1 1 1 1 1 1 1 
1 1 1 1 1 1 1 1 1 
1 1 1 1 1 1 1 1 1 
1 1 1 1 1 1 1 1 1 
1 1 1 1 1 1 1 1 1 
1 1 1 1 1 1 1 1 1 
1 1 1 1 1 1 1 1 1 
1 1 1 1 1 1 1 1 1 
1 1 1 1 1 1 1 1 1 
1 1 1 1 1 1 1 1 1 
1 1 1 1 1 1 1 1 1 
1 1 1 1 1 1 1 1 1 
1 1 1 1 1 1 1 1 1 
1 1 1 1 1 1 1 1 1 
1 1 1 1 1 1 1 1 1 
1 1 1 1 1 1 1 1 1 
1 1 1 1 1 1 1 1 1 
1 1 1 1 1 1 1 1 1 
1 1 1 1 1 1 1 1 1 
1 1 1 1 1 1 1 1 1 
1 1 1 1 1 1 1 1 1 
1 1 1 1 1 1 1 1 1 
1 1 1 1 1 1 1 1 1 
1 1 1 1 1 1 1 1 1 
1 1 1 1 1 1 1 1 1 
1 1 1 1 1 1 1 1 1 
1 1 1 1 1 1 1 1 1 
1 1 1 1 1 1 1 1 1 
1 1 1 1 1 1 1 1 1 
1 1 1 1 1 1 1 1 1 
1 1 1 1 1 1 1 1 1 
1 1 1 1 1 1 1 1 1 
1 1 1 1 1 1 1 1 1 
1 1 1 1 1 1 1 1 1 
1 1 1 1 1 1 1 1 1 
1 1 1 1 1 1 1 1 1 
1 1 1 1 1 1 1 1 1 
1 1 1 1 1 1 1 1 1 
1 1 1 1 1 1 1 1 1 
1 1 1 1 1 1 1 1 1 
1 1 1 1 1 1 1 1 1 
1 1 1 1 1 1 1 1 1 
1 1 1 1 1 1 1 1 1 
1 1 1 1 1 1 1 1 1 
1 1 1 1 1 1 1 1 1 
1 1 1 1 1 1 1 1 1 
1 1 1 1 1 1 1 1 1 
1 1 1 1 1 1 1 1 1 
1 1 1 1 1 1 1 1 1 
1 1 1 1 1 1 1 1 1 
1 1 1 1 1 1 1 1 1 
1 1 1 1 1 1 1 1 1 
1 1 1 1 1 1 1 1 1 
1 1 1 1 1 1 1 1 1 
1 1 1 1 1 1 1 1 1 
1 1 1 1 1 1 1 1 1 
1 1 1 1 1 1 1 1 1 
1 1 1 1 1 1 1 1 1 
1 1 1 1 1 1 1 1 1 
1 1 1 1 1 1 1 1 1 
1 1 1 1 1 1 1 1 1 
1 1 1 1 1 1 1 1 1 
1 1 1 1 1 1 1 1 1 
1 1 1 1 1 1 1 1 1 
1 1 1 1 1 1 1 1 1 
1 1 1 1 1 1 1 1 1 
1 1 1 1 1 1 1 1 1 
1 1 1 1 1 1 1 1 1 
1 1 1 1 1 1 1 1 1 
1 1 1 1 1 1 1 1 1 
1 1 1 1 1 1 1 1 1 
1 1 1 1 1 1 1 1 1 
1 1 1 1 1 1 1 1 1 
1 1 1 1 1 1 1 1 1 
1 1 1 1 1 1 1 1 1 
1 1 1 1 1 1 1 1 1 
1 1 1 1 1 1 1 1 1 
1 1 1 1 1 1 1 1 1 
1 1 1 1 1 1 1 1 1 
1 1 1 1 1 1 1 1 1 
1 1 1 1 1 1 1 1 1 
1 1 1 1 1 1 1 1 1 
1 1 1 1 1 1 1 1 1 
1 1 1 1 1 1 1 1 1 
1 1 1 1 1 1 1 1 1 
1 1 1 1 1 1 1 1 1 
1 1 1 1 1 1 1 1 1 
1 1 1 1 1 1 1 1 1 
1 1 1 1 1 1 1 1 1 
1 1 1 1 1 1 1 1 1 
1 1 1 1 1 1 1 1 1 
1 1 1 1 1 1 1 1 1 
1 1 1 1 1 1 1 1 1 
1 1 1 1 1 1 1 1 1 
1 1 1 1 1 1 1 1 1 
1 1 1 1 1 1 1 1 1 
1 1 1 1 1 1 1 1 1 
1 1 1 1 1 1 1 1 1 
1 1 1 1 1 1 1 1 1 
1 1 1 1 1 1 1 1 1 
1 1 1 1 1 1 1 1 1 
1 1 1 1 1 1 1 1 1 
1 1 1 1 1 1 1 1 1 
1 1 1 1 1 1 1 1 1 
1 1 1 1 1 1 1 1 1 
1 1 1 1 1 1 1 1 1 
1 1 1 1 1 1 1 1 1 
1 1 1 1 1 1 1 1 1 
1 1 1 1 1 1 1 1 1 
1 1 1 1 1 1 1 1 1 
1 1 1 1 1 1 1 1 1 
1 1 1 1 1 1 1 1 1 
1 1 1 1 1 1 1 1 1 
1 1 1 1 1 1 1 1 1 
1 1 1 1 1 1 1 1 1 
1 1 1 1 1 1 1 1 1 
1 1 1 1 1 1 1 1 1 
1 1 1 1 1 1 1 1 1 
1 1 1 1 1 1 1 1 1 
1 1 1 1 1 1 1 1 1 
1 1 1 1 1 1 1 1 1 
1 1 1 1 1 1 1 1 1 
1 1 1 1 1 1 1 1 1 
1 1 1 1 1 1 1 1 1 
1 1 1 1 1 1 1 1 1 
1 1 1 1 1 1 1 1 1 
1 1 1 1 1 1 1 1 1 
1 1 1 1 1 1 1 1 1 
1 1 1 1 1 1 1 1 1 
1 1 1 1 1 1 1 1 1 
1 1 1 1 1 1 1 1 1 
1 1 1 1 1 1 1 1 1 
1 1 1 1 1 1 1 1 1 
1 1 1 1 1 1 1 1 1 
1 1 1 1 1 1 1 1 1 
1 1 1 1 1 1 1 1 1 
1 1 1 1 1 1 1 1 1 
1 1 1 1 1 1 1 1 1 
1 1 1 1 1 1 1 1 1 
1 1 1 1 1 1 1 1 1 
1 1 1 1 1 1 1 1 1 
1 1 1 1 1 1 1 1 1 
1 1 1 1 1 1 1 1 1 
1 1 1 1 1 1 1 1 1 
1 1 1 1 1 1 1 1 1 
1 1 1 1 1 1 1 1 1 
1 1 1 1 1 1 1 1 1 
1 1 1 1 1 1 1 1 1 
1 1 1 1 1 1 1 1 1 
1 1 1 1 1 1 1 1 1 
1 1 1 1 1 1 1 1 1 
1 1 1 1 1 1 1 1 1 
1 1 1 1 1 1 1 1 1 
1 1 1 1 1 1 1 1 1 
1 1 1 1 1 1 1 1 1 
1 1 1 1 1 1 1 1 1 
1 1 1 1 1 1 1 1 1 
1 1 1 1 1 1 1 1 1 
1 1 1 1 1 1 1 1 1 
1 1 1 1 1 1 1 1 1 
1 1 1 1 1 1 1 1 1 
1 1 1 1 1 1 1 1 1 
1 1 1 1 1 1 1 1 1 
1 1 1 1 1 1 1 1 1 
1 1 1 1 1 1 1 1 1 
1 1 1 1 1 1 1 1 1 
1 1 1 1 1 1 1 1 1 
1 1 1 1 1 1 1 1 1 
1 1 1 1 1 1 1 1 1 
1 1 1 1 1 1 1 1 1 
1 1 1 1 1 1 1 1 1 
1 1 1 1 1 1 1 1 1 
1 1 1 1 1 1 1 1 1 
1 1 1 1 1 1 1 1 1 
1 1 1 1 1 1 1 1 1 
1 1 1 1 1 1 1 1 1 
1 1 1 1 1 1 1 1 1 
1 1 1 1 1 1 1 1 1 
1 1 1 1 1 1 1 1 1 
1 1 1 1 1 1 1 1 1 
1 1 1 1 1 1 1 1 1 
1 1 1 1 1 1 1 1 1 
1 1 1 1 1 1 1 1 1 
1 1 1 1 1 1 1 1 1 
1 1 1 1 1 1 1 1 1 
1 1 1 1 1 1 1 1 1 
1 1 1 1 1 1 1 1 1 
1 1 1 1 1 1 1 1 1 
1 1 1 1 1 1 1 1 1 
1 1 1 1 1 1 1 1 1 
1 1 1 1 1 1 1 1 1 
1 1 1 1 1 1 1 1 1 
1 1 1 1 1 1 1 1 1 
1 1 1 1 1 1 1 1 1 
1 1 1 1 1 1 1 1 1 
1 1 1 1 1 1 1 1 1 
1 1 1 1 1 1 1 1 1 
1 1 1 1 1 1 1 1 1 
1 1 1 1 1 1 1 1 1 
1 1 1 1 1 1 1 1 1 
1 1 1 1 1 1 1 1 1 
1 1 1 1 1 1 1 1 1 
1 1 1 1 1 1 1 1 1 
1 1 1 1 1 1 1 1 1 
1 1 1 1 1 1 1 1 1 
1 1 1 1 1 1 1 1 1 
1 1 1 1 1 1 1 1 1 
1 1 1 1 1 1 1 1 1 
1 1 1 1 1 1 1 1 1 
1 1 1 1 1 1 1 1 1 
1 1 1 1 1 1 1 1 1 
1 1 1 1 1 1 1 1 1 
1 1 1 1 1 1 1 1 1 
1 1 1 1 1 1 1 1 1 
1 1 1 1 1 1 1 1 1 
1 1 1 1 1 1 1 1 1 
1 1 1 1 1 1 1 1 1 
1 1 1 1 1 1 1 1 1 
1 1 1 1 1 1 1 1 1 
1 1 1 1 1 1 1 1 1 
1 1 1 1 1 1 1 1 1 
1 1 1 1 1 1 1 1 1 
1 1 1 1 1 1 1 1 1 
1 1 1 1 1 1 1 1 1 
1 1 1 1 1 1 1 1 1 
1 1 1 1 1 1 1 1 1 
1 1 1 1 1 1 1 1 1 
1 1 1 1 1 1 1 1 1 
1 1 1 1 1 1 1 1 1 
1 1 1 1 1 1 1 1 1 
1 1 1 1 1 1 1 1 1 
1 1 1 1 1 1 1 1 1 
1 1 1 1 1 1 1 1 1 
1 1 1 1 1 1 1 1 1 
1 1 1 1 1 1 1 1 1 
1 1 1 1 1 1 1 1 1 
1 1 1 1 1 1 1 1 1 
1 1 1 1 1 1 1 1 1 
1 1 1 1 1 1 1 1 1 
1 1 1 1 1 1 1 1 1 
1 1 1 1 1 1 1 1 1 
1 1 1 1 1 1 1 1 1 
1 1 1 1 1 1 1 1 1 
1 1 1 1 1 1 1 1 1 
1 1 1 1 1 1 1 1 1 
1 1 1 1 1 1 1 1 1 
1 1 1 1 1 1 1 1 1 
1 1 1 1 1 1 1 1 1 
1 1 1 1 1 1 1 1 1 
1 1 1 1 1 1 1 1 1 
1 1 1 1 1 1 1 1 1 
1 1 1 1 1 1 1 1 1 
1 1 1 1 1 1 1 1 1 
1 1 1 1 1 1 1 1 1 
1 1 1 1 1 1 1 1 1 
1 1 1 1 1 1 1 1 1 
1 1 1 1 1 1 1 1 1 
1 1 1 1 1 1 1 1 1 
1 1 1 1 1 1 1 1 1 
1 1 1 1 1 1 1 1 1 
1 1 1 1 1 1 1 1 1 
1 1 1 1 1 1 1 1 1 
1 1 1 1 1 1 1 1 1 
1 1 1 1 1 1 1 1 1 
1 1 1 1 1 1 1 1 1 
1 1 1 1 1 1 1 1 1 
1 1 1 1 1 1 1 1 1 
1 1 1 1 1 1 1 1 1 
1 1 1 1 1 1 1 1 1 
1 1 1 1 1 1 1 1 1 
1 1 1 1 1 1 1 1 1 
1 1 1 1 1 1 1 1 1 
1 1 1 1 1 1 1 1 1 
1 1 1 1 1 1 1 1 1 
1 1 1 1 1 1 1 1 1 
1 1 1 1 1 1 1 1 1 
1 1 1 1 1 1 1 1 1 
1 1 1 1 1 1 1 1 1 
1 1 1 1 1 1 1 1 1 
1 1 1 1 1 1 1 1 1 
1 1 1 1 1 1 1 1 1 
1 1 1 1 1 1 1 1 1 
1 1 1 1 1 1 1 1 1 
1 1 1 1 1 1 1 1 1 
1 1 1 1 1 1 1 1 1 
1 1 1 1 1 1 1 1 1 
1 1 1 1 1 1 1 1 1 
1 1 1 1 1 1 1 1 1 
1 1 1 1 1 1 1 1 1 
1 1 1 1 1 1 1 1 1 
1 1 1 1 1 1 1 1 1 
1 1 1 1 1 1 1 1 1 
1 1 1 1 1 1 1 1 1 
1 1 1 1 1 1 1 1 1 
1 1 1 1 1 1 1 1 1 
1 1 1 1 1 1 1 1 1 
1 1 1 1 1 1 1 1 1 
1 1 1 1 1 1 1 1 1 
1 1 1 1 1 1 1 1 1 
1 1 1 1 1 1 1 1 1 
1 1 1 1 1 1 1 1 1 
1 1 1 1 1 1 1 1 1 
1 1 1 1 1 1 1 1 1 
1 1 1 1 1 1 1 1 1 
1 1 1 1 1 1 1 1 1 
1 1 1 1 1 1 1 1 1 
1 1 1 1 1 1 1 1 1 
1 1 1 1 1 1 1 1 1 
1 1 1 1 1 1 1 1 1 
1 1 1 1 1 1 1 1 1 
1 1 1 1 1 1 1 1 1 
1 1 1 1 1 1 1 1 1 
1 1 1 1 1 1 1 1 1 
1 1 1 1 1 1 1 1 1 
1 1 1 1 1 1 1 1 1 
1 1 1 1 1 1 1 1 1 
1 1 1 1 1 1 1 1 1 
1 1 1 1 1 1 1 1 1 
1 1 1 1 1 1 1 1 1 
1 1 1 1 1 1 1 1 1 
1 1 1 1 1 1 1 1 1 
1 1 1 1 1 1 1 1 1 
1 1 1 1 1 1 1 1 1 
1 1 1 1 1 1 1 1 1 
1 1 1 1 1 1 1 1 1 
1 1 1 1 1 1 1 1 1 
1 1 1 1 1 1 1 1 1 
1 1 1 1 1 1 1 1 1 
1 1 1 1 1 1 1 1 1 
1 1 1 1 1 1 1 1 1 
1 1 1 1 1 1 1 1 1 
1 1 1 1 1 1 1 1 1 
1 1 1 1 1 1 1 1 1 
1 1 1 1 1 1 1 1 1 
1 1 1 1 1 1 1 1 1 
1 1 1 1 1 1 1 1 1 
1 1 1 1 1 1 1 1 1 
1 1 1 1 1 1 1 1 1 
1 1 1 1 1 1 1 1 1 
1 1 1 1 1 1 1 1 1 
1 1 1 1 1 1 1 1 1 
1 1 1 1 1 1 1 1 1 
1 1 1 1 1 1 1 1 1 
1 1 1 1 1 1 1 1 1 
1 1 1 1 1 1 1 1 1 
1 1 1 1 1 1 1 1 1 
1 1 1 1 1 1 1 1 1 
1 1 1 1 1 1 1 1 1 
1 1 1 1 1 1 1 1 1 
1 1 1 1 1 1 1 1 1 
1 1 1 1 1 1 1 1 1 
1 1 1 1 1 1 1 1 1 
1 1 1 1 1 1 1 1 1 
1 1 1 1 1 1 1 1 1 
1 1 1 1 1 1 1 1 1 
1 1 1 1 1 1 1 1 1 
1 1 1 1 1 1 1 1 1 
1 1 1 1 1 1 1 1 1 
1 1 1 1 1 1 1 1 1 
1 1 1 1 1 1 1 1 1 
1 1 1 1 1 1 1 1 1 
1 1 1 1 1 1 1 1 1 
1 1 1 1 1 1 1 1 1 
1 1 1 1 1 1 1 1 1 
1 1 1 1 1 1 1 1 1 
1 1 1 1 1 1 1 1 1 
1 1 1 1 1 1 1 1 1 
1 1 1 1 1 1 1 1 1 
1 1 1 1 1 1 1 1 1 
1 1 1 1 1 1 1 1 1 
1 1 1 1 1 1 1 1 1 
1 1 1 1 1 1 1 1 1 
1 1 1 1 1 1 1 1 1 
1 1 1 1 1 1 1 1 1 
1 1 1 1 1 1 1 1 1 
1 1 1 1 1 1 1 1 1 
1 1 1 1 1 1 1 1 1 
1 1 1 1 1 1 1 1 1 
1 1 1 1 1 1 1 1 1 
1 1 1 1 1 1 1 1 1 
1 1 1 1 1 1 1 1 1 
1 1 1 1 1 1 1 1 1 
1 1 1 1 1 1 1 1 1 
1 1 1 1 1 1 1 1 1 
1 1 1 1 1 1 1 1 1 
1 1 1 1 1 1 1 1 1 
1 1 1 1 1 1 1 1 1 
1 1 1 1 1 1 1 1 1 
1 1 1 1 1 1 1 1 1 
1 1 1 1 1 1 1 1 1 
1 1 1 1 1 1 1 1 1 
1 1 1 1 1 1 1 1 1 
1 1 1 1 1 1 1 1 1 
1 1 1 1 1 1 1 1 1 
1 1 1 1 1 1 1 1 1 
1 1 1 1 1 1 1 1 1 
1 1 1 1 1 1 1 1 1 
1 1 1 1 1 1 1 1 1 
1 1 1 1 1 1 1 1 1 
1 1 1 1 1 1 1 1 1 
1 1 1 1 1 1 1 1 1 
1 1 
NORMALS normals float
0 -0.110432 -0.993884 0 -0.993884 -0.110432 -0.662085 -0.0827606 -0.744845 
0.532152 -0.598671 -0.598671 -0.109764 0.109764 -0.987878 -0.704934 0.078326 -0.704934 
0.553372 -0.553372 -0.622543 0 0 -1 0.109764 -0.109764 -0.987878 
0.078326 -0.704934 -0.704934 0.704934 -0.078326 -0.704934 -0.078326 0.704934 -0.704934 
-0.553372 0.553372 -0.622543 -0.553372 0.553372 -0.622543 0 0 -1 
0.664364 0 -0.747409 0 0 -1 -0.664364 0 -0.747409 
0.664364 0 -0.747409 0 0 -1 -0.664364 0 -0.747409 
0.664364 0 -0.747409 0 0 -1 -0.664364 0 -0.747409 
0.664364 0 -0.747409 0 0 -1 -0.664364 0 -0.747409 
0.553372 -0.553372 -0.622543 -0.109764 0.109764 -0.987878 -0.704934 0.078326 -0.704934 
0.598671 -0.532152 -0.598671 0.110432 0 -0.993884 0.707107 0 -0.707107 
-0.078326 0.704934 -0.704934 0.0827606 0.662085 -0.744845 -0.109764 -0.109764 -0.987878 
-0.109764 -0.987878 -0.109764 -0.704934 -0.704934 -0.078326 0.123091 -0.123091 -0.984732 
0.110432 -0.993884 0 0.993884 -0.110432 0 -0.109764 -0.109764 -0.987878 
-0.704934 -0.704934 -0.078326 -0.704934 -0.704934 -0.078326 0 0 -1 
0.110432 0 -0.993884 0.993884 0 -0.110432 -0.109764 -0.109764 -0.987878 
-0.109764 -0.987878 -0.109764 -0.704934 -0.704934 -0.078326 0 -0.110432 -0.993884 
0 -0.993884 -0.110432 -0.662085 -0.0827606 -0.744845 0 -0.993884 -0.110432 
0 -1 0 0.532152 -0.598671 -0.598671 -0.662085 -0.744845 -0.0827606 
0 -0.664364 -0.747409 0 0 -1 0.110432 0 -0.993884 
0.993884 0 -0.110432 -0.123091 -0.123091 -0.984732 -0.707107 -0.707107 0 
-0.707107 -0.707107 0 0 0 -1 0 0 -1 
-0.664364 0 -0.747409 0.664364 0 -0.747409 0.110432 0 -0.993884 
0.993884 0 -0.110432 -0.109764 -0.109764 -0.987878 -0.704934 -0.704934 -0.078326 
-0.704934 -0.704934 -0.078326 0 0 -1 0 0 -1 
0 0 -1 0 0 -1 0 0.664364 -0.747409 
-0.553372 0.553372 -0.622543 0.664364 0 -0.747409 0.110432 0 -0.993884 
0.993884 0 -0.110432 -0.124035 0 -0.992278 -0.747409 -0.664364 0 
-1 0 0 0 0 -1 0 0 -1 
0 0 -1 0 0 -1 0 0 -1 
0 0 -1 -0.664364 0 -0.747409 0.664364 0 -0.747409 
0.110432 0 -0.993884 0.993884 0 -0.110432 -0.622543 0.553372 -0.553372 
-0.598671 0.532152 -0.598671 -0.110432 0 -0.993884 0 0 -1 
0 0 -1 0 0 -1 0 0 -1 
0 0 -1 -0.664364 0 -0.747409 0.664364 0 -0.747409 
0.110432 0 -0.993884 0.993884 0 -0.110432 -0.110432 0 -0.993884 
-0.707107 0 -0.707107 0 0 -1 0 0 -1 
0 0 -1 0 0 -1 0 0 -1 
-0.664364 0 -0.747409 0.664364 0 -0.747409 0.110432 0 -0.993884 
0.993884 0 -0.110432 -0.110432 0 -0.993884 -0.707107 0 -0.707107 
0 0 -1 0 0 -1 0 0 -1 
0 0 -1 0 0 -1 -0.664364 0 -0.747409 
0.553372 -0.553372 -0.622543 0.110432 0 -0.993884 0.993884 0 -0.110432 
-0.109764 0.109764 -0.987878 -0.987878 0.109764 -0.109764 0 0.110432 -0.993884 
0 0 -1 0 0 -1 0 0 -1 
0 0 -1 -0.664364 0 -0.747409 0.707107 0 -0.707107 
0.993884 0 -0.110432 -0.109764 0.987878 -0.109764 -0.532152 0.598671 -0.598671 
-0.598671 0.532152 -0.598671 -0.110432 0 -0.993884 0 0 -1 
0 0 -1 0 0 -1 0 0 -1 
0 0.664364 -0.747409 0 0.664364 -0.747409 0.109764 0.109764 -0.987878 
0.987878 0.109764 -0.109764 -0.109764 0.109764 -0.987878 -0.987878 0.109764 -0.109764 
0 0.110432 -0.993884 0 0.110432 -0.993884 0 0.110432 -0.993884 
0 0.110432 -0.993884 0 0.110432 -0.993884 0.109764 0.109764 -0.987878 
0.704934 0.704934 -0.078326 0.704934 0.704934 -0.078326 -0.109764 0.987878 -0.109764 
0 0.993884 -0.110432 0 0.993884 -0.110432 0 0.993884 -0.110432 
0 0.993884 -0.110432 0 0.707107 -0.707107 0.109764 0.987878 -0.109764 
0 -0.993884 0.110432 -0.662085 -0.744845 0.0827606 0.598671 -0.598671 0.532152 
0.532152 -0.598671 0.598671 -0.704934 -0.704934 0.078326 -0.704934 -0.704934 0.078326 
0.57735 -0.57735 0.57735 0.987878 -0.109764 0.109764 -0.109764 -0.987878 0.109764 
-0.987878 -0.109764 0.109764 0 -0.993884 0.110432 0 -1 0 
0 -1 0 -0.664364 -0.747409 0 1 0 0 
-0.598671 -0.598671 0.532152 -0.598671 -0.532152 0.598671 1 0 0 
-0.109764 -0.987878 0.109764 -0.987878 -0.109764 0.109764 -0.532152 -0.598671 0.598671 
1 0 0 -0.622543 -0.553372 0.553372 -0.598671 -0.532152 0.598671 
1 0 0 -0.598671 -0.598671 0.532152 -0.993884 -0.110432 0 
-0.646162 0.502571 -0.574367 1 0 0 -0.747409 0 -0.664364 
-1 0 0 1 0 0 -0.744845 0.0827606 -0.662085 
-0.993884 0.110432 0 1 0 0 -0.707107 0.707107 0 
-0.707107 0.707107 0 1 0 0 -0.707107 0.707107 0 
-0.598671 0.598671 -0.532152 -0.707107 0.707107 0 0.993884 0.110432 0 
-0.707107 0.707107 0 -0.707107 0.707107 0 0.598671 0.598671 -0.532152 
0.598671 0.598671 -0.532152 -0.0827606 0.744845 -0.662085 0 0.747409 -0.664364 
0 0.747409 -0.664364 0 0.747409 -0.664364 -0.553372 0.622543 -0.553372 
0 0.664364 -0.747409 -0.553372 0.553372 -0.622543 0.553372 0.553372 -0.622543 
0.598671 0.598671 -0.532152 0 0 -1 -0.664364 0 -0.747409 
0.664364 0 -0.747409 0 0.110432 -0.993884 -0.662085 0.0827606 -0.744845 
0.662085 0.0827606 -0.744845 0 0.707107 -0.707107 0 -0.110432 0.993884 
-0.078326 -0.704934 0.704934 0 -0.664364 0.747409 0.078326 -0.704934 0.704934 
-0.109764 -0.109764 0.987878 -0.532152 -0.598671 0.598671 -0.598671 -0.598671 0.532152 
-0.110432 -0.993884 0 0 -1 0 0 -1 0 
0 -0.747409 0.664364 0 -0.747409 0.664364 0.0827606 -0.744845 0.662085 
0.993884 -0.110432 0 -0.598671 -0.532152 0.598671 -0.598671 -0.598671 0.532152 
-0.598671 -0.598671 0.532152 1 0 0 -0.109764 -0.109764 0.987878 
-0.532152 -0.598671 0.598671 -0.598671 -0.598671 0.532152 -0.598671 -0.598671 0.532152 
1 0 0 -0.598671 -0.532152 0.598671 -0.598671 -0.598671 0.532152 
-0.598671 -0.598671 0.532152 1 0 0 -0.744845 -0.0827606 0.662085 
-0.744845 -0.0827606 0.662085 -0.598671 -0.598671 0.532152 1 0 0 
-0.747409 0 0.664364 -0.747409 0 0.664364 1 0 0 
-0.744845 0.0827606 0.662085 -0.747409 0 0.664364 1 0 0 
-0.993884 0.110432 0 1 0 0 -0.110432 0.993884 0 
-0.553372 0.622543 0.553372 -0.598671 0.598671 0.532152 -0.622543 0.553372 0.553372 
1 0 0 -1 0 0 0.598671 0.532152 -0.598671 
0.993884 0 -0.110432 -0.0827606 0.662085 -0.744845 -0.744845 -0.662085 -0.0827606 
0 0.664364 -0.747409 0 0.664364 -0.747409 0 0.664364 -0.747409 
-0.553372 0.553372 -0.622543 0.553372 0.553372 -0.622543 0.110432 0 -0.993884 
0.993884 0 -0.110432 -0.110432 0 -0.993884 -0.744845 -0.662085 -0.0827606 
-0.993884 0 -0.110432 0 0 -1 0 0 -1 
0 0 -1 0 0 -1 -0.664364 0 -0.747409 
0.664364 0 -0.747409 0.110432 0 -0.993884 0.993884 0 -0.110432 
-0.598671 0.532152 -0.598671 -0.598671 0.532152 -0.598671 -0.110432 0 -0.993884 
0 0 -1 0 0 -1 0 0 -1 
-0.664364 0 -0.747409 0.664364 0 -0.747409 0.109764 0.109764 -0.987878 
0.987878 0.109764 -0.109764 -0.109764 0.109764 -0.987878 -0.704934 0.078326 -0.704934 
0 0.110432 -0.993884 0 0 -1 0 0 -1 
0 0 -1 0 0.664364 -0.747409 0.109764 0.109764 -0.987878 
0.704934 0.704934 -0.078326 0.704934 0.704934 -0.078326 -0.109764 0.987878 -0.109764 
-0.532152 0.598671 -0.598671 -0.598671 0.532152 -0.598671 -0.110432 0 -0.993884 
0 0 -1 0 0 -1 0.109764 0.109764 -0.987878 
0.704934 0.704934 -0.078326 0.704934 0.704934 -0.078326 -0.109764 0.109764 -0.987878 
-0.704934 0.078326 -0.704934 0 0.110432 -0.993884 0.109764 0.109764 -0.987878 
0.57735 0.57735 -0.57735 0.57735 0.57735 -0.57735 -0.109764 0.987878 -0.109764 
0 0.993884 -0.110432 0.109764 0.987878 -0.109764 -0.110432 -0.993884 0 
-0.707107 -0.707107 0 0 -1 0 0 -1 0 
0 -1 0 0 -1 0 0.110432 -0.993884 0 
0.744845 -0.0827606 -0.662085 -0.707107 -0.707107 0 -0.707107 -0.707107 0 
0.747409 0 -0.664364 -0.707107 -0.707107 0 -0.707107 -0.707107 0 
0.747409 0 -0.664364 -0.707107 -0.707107 0 -0.707107 -0.707107 0 
0.747409 0 -0.664364 -0.707107 -0.707107 0 -0.993884 -0.110432 0 
0.747409 0 -0.664364 -1 0 0 0.747409 0 -0.664364 
-1 0 0 0.747409 0 -0.664364 -0.993884 0.110432 0 
0.747409 0 -0.664364 -0.110432 0.993884 0 -0.664364 0.747409 0 
-0.747409 0.664364 0 0.747409 0 -0.664364 -1 0 0 
0.747409 0 -0.664364 -0.747409 -0.664364 0 1 0 0 
-0.707107 -0.707107 0 -0.993884 -0.110432 0 1 0 0 
-0.598671 0.532152 -0.598671 -0.707107 0 -0.707107 0.993884 0.110432 0 
-0.704934 0.078326 -0.704934 -0.704934 0.078326 -0.704934 0.598671 0.598671 -0.532152 
0.598671 0.598671 -0.532152 -0.078326 0.704934 -0.704934 -0.553372 0.622543 -0.553372 
-0.598671 0.532152 -0.598671 -0.598671 0.532152 -0.598671 0.622543 0.553372 -0.553372 
0.598671 0.598671 -0.532152 -0.704934 0.078326 -0.704934 -0.704934 0.078326 -0.704934 
0.598671 0.532152 -0.598671 0.707107 0 -0.707107 -0.078326 0.704934 -0.704934 
0 0.747409 -0.664364 0 0.747409 -0.664364 -0.553372 0.622543 -0.553372 
0 0 -1 -0.553372 0.553372 -0.622543 0.553372 -0.553372 -0.622543 
-0.109764 0.109764 -0.987878 -0.704934 0.078326 -0.704934 0.598671 -0.532152 -0.598671 
0.110432 0 -0.993884 0.707107 0 -0.707107 -0.078326 0.704934 -0.704934 
0.0827606 0.662085 -0.744845 0 -0.110432 -0.993884 0 -0.707107 -0.707107 
-0.662085 -0.0827606 -0.744845 0.984732 -0.123091 -0.123091 0 0 -1 
-0.664364 0 -0.747409 0.553372 -0.553372 -0.622543 -0.109764 0.109764 -0.987878 
-0.704934 0.078326 -0.704934 0.598671 -0.532152 -0.598671 0.110432 0 -0.993884 
0.707107 0 -0.707107 -0.078326 0.704934 -0.704934 0.0827606 0.662085 -0.744845 
-0.110432 -0.993884 0 -0.707107 -0.707107 0 0 -1 0 
0 -0.747409 -0.664364 0 -0.747409 -0.664364 0 -0.747409 -0.664364 
0 -0.747409 -0.664364 0.662085 -0.0827606 -0.744845 0 -0.707107 -0.707107 
0.109764 -0.109764 -0.987878 0.109764 -0.987878 -0.109764 0.987878 -0.109764 -0.109764 
-0.704934 -0.704934 0.078326 -0.704934 -0.704934 0.078326 0.664364 0 -0.747409 
0.110432 0 -0.993884 0.993884 0 -0.110432 -0.707107 -0.707107 0 
-0.707107 -0.707107 0 0.664364 0 -0.747409 0.110432 0 -0.993884 
0.993884 0 -0.110432 -0.707107 -0.707107 0 -0.707107 -0.707107 0 
0.664364 0 -0.747409 0.110432 0 -0.993884 0.993884 0 -0.110432 
-0.707107 -0.707107 0 -0.993884 -0.110432 0 0.664364 0 -0.747409 
0.110432 0 -0.993884 0.993884 0 -0.110432 -1 0 0 
0.664364 0 -0.747409 0.110432 0 -0.993884 0.993884 0 -0.110432 
-1 0 0 0.664364 0 -0.747409 0.110432 0 -0.993884 
0.993884 0 -0.110432 -0.993884 0.110432 0 0.664364 0 -0.747409 
0.110432 0 -0.993884 0.993884 0 -0.110432 -0.110432 0.993884 0 
-0.553372 0.622543 -0.553372 -0.622543 0.553372 -0.553372 0.664364 0 -0.747409 
0.109764 0.109764 -0.987878 0.987878 0.109764 -0.109764 -0.747409 0 -0.664364 
0.704934 0.078326 -0.704934 0.704934 0.704934 -0.078326 0.704934 0.704934 -0.078326 
-0.622543 -0.553372 -0.553372 0.747409 0.664364 0 0.704934 0.704934 -0.078326 
-0.598671 -0.598671 -0.532152 -0.598671 -0.598671 -0.532152 1 0 0 
-0.704934 -0.078326 -0.704934 -0.57735 -0.57735 -0.57735 -0.987878 -0.109764 -0.109764 
1 0 0 -0.707107 0 -0.707107 -0.993884 0 -0.110432 
0.598671 0.532152 -0.598671 0.993884 0 -0.110432 -0.110432 0 -0.993884 
-0.993884 0 -0.110432 0 0.664364 -0.747409 -0.553372 0.553372 -0.622543 
0.553372 0.553372 -0.622543 0.110432 0 -0.993884 0.993884 0 -0.110432 
-0.110432 0 -0.993884 -0.993884 0 -0.110432 0 0 -1 
-0.664364 0 -0.747409 0.664364 0 -0.747409 0.110432 0 -0.993884 
0.993884 0 -0.110432 -0.110432 0 -0.993884 -0.993884 0 -0.110432 
0 0 -1 0 0 -1 0 0.664364 -0.747409 
0 0.664364 -0.747409 0 0.664364 -0.747409 -0.553372 0.553372 -0.622543 
0.553372 -0.553372 -0.622543 0.110432 0 -0.993884 0.993884 0 -0.110432 
-0.110432 0 -0.993884 -0.993884 0 -0.110432 0 0 -1 
0 0 -1 0 0 -1 0 0 -1 
0 0 -1 -0.664364 0 -0.747409 0.707107 0 -0.707107 
0.993884 0 -0.110432 -0.110432 0 -0.993884 -0.993884 0 -0.110432 
0 0 -1 0 0 -1 0 0 -1 
0 0 -1 0 0 -1 0 0 -1 
0 0.664364 -0.747409 0 0.664364 -0.747409 0.0827606 -0.662085 -0.744845 