# vtk DataFile Version 3.0
vtk output
ASCII
DATASET POLYDATA
POINTS 4356 float
80 132 58.0141 80 131.014 59 79.0141 132 59 
80.9859 132 59 80 133 58.0141 79.0141 133 59 
81 132.014 59 81 133 58.0141 82 133 58.0141 
82 132.014 59 83 133 58.0141 83 132.014 59 
84 133 58.0141 84 132.014 59 85 133 58.0141 
85 132.014 59 85.9859 133 59 80 133.986 59 
81 133.986 59 82 133.986 59 83 133.986 59 
84 133.986 59 85 133.986 59 77 139 58.0141 
77 138.014 59 76.0141 139 59 78 139 58.0141 
78 138.014 59 78.9859 139 59 77 139.986 59 
77.0141 140 59 78 140 58.0141 78.9859 140 59 
78 140.986 59 79 132 59.0141 79 131.014 60 
78.0141 132 60 80 131.014 60 81 132 59.0141 
81 131.014 60 82 132 59.0141 82 131.014 60 
83 132 59.0141 83 131.014 60 84 132 59.0141 
84 131.014 60 85 132 59.0141 85 131.014 60 
86 132 59.0141 86 131.014 60 86.9859 132 60 
78 133 59.0141 78 132.014 60 77.0141 133 60 
79 133 59.0141 86 133 59.0141 86.9859 133 60 
77 134 59.0141 77 133.014 60 76.0141 134 60 
78 134 59.0141 79 134 59.0141 80 134 59.0141 
81 134 59.0141 82 134 59.0141 83 134 59.0141 
84 134 59.0141 85 134 59.0141 86 134 59.0141 
86.9859 134 60 77 135 59.0141 76.0141 135 60 
78 135 59.0141 79 135 59.0141 80 135 59.0141 
81 135 59.0141 82 135 59.0141 83 135 59.0141 
84 135 59.0141 85 135 59.0141 86 135 59.0141 
86.9859 135 60 77 136 59.0141 76.0141 136 60 
78 136 59.0141 79 136 59.0141 80 136 59.0141 
81 136 59.0141 82 136 59.0141 83 136 59.0141 
84 136 59.0141 85 136 59.0141 86 136 59.0141 
86.9859 136 60 77 137 59.0141 76.0141 137 60 
78 137 59.0141 79 137 59.0141 80 137 59.0141 
81 137 59.0141 82 137 59.0141 83 137 59.0141 
84 137 59.0141 85 137 59.0141 85.9859 137 60 
86 136.986 60 77 138 59.0141 76.0141 138 60 
78 138 59.0141 79 138 59.0141 80 138 59.0141 
81 138 59.0141 82 138 59.0141 83 138 59.0141 
84 138 59.0141 84.9859 138 60 85 137.986 60 
76.0141 139 60 79 139 59.0141 80 139 59.0141 
81 139 59.0141 82 139 59.0141 83 139 59.0141 
84 139 59.0141 84.9859 139 60 77 140 59.0141 
76.0141 140 60 79 140 59.0141 80 140 59.0141 
81 140 59.0141 82 140 59.0141 83 140 59.0141 
84 140 59.0141 84.9859 140 60 77 141 59.0141 
76.0141 141 60 78 141 59.0141 79 141 59.0141 
80 141 59.0141 81 141 59.0141 82 141 59.0141 
83 141 59.0141 83.9859 141 60 84 140.986 60 
77 141.986 60 78 141.986 60 79 141.986 60 
80 141.986 60 81 141.986 60 82 141.986 60 
83 141.986 60 78 132 60.0141 78 131.014 61 
77.0141 132 61 79 131.014 61 80 131.014 61 
81 131.014 61 82 131.014 61 83 131.014 61 
84 131.014 61 85 131.014 61 86 131.014 61 
86.9859 132 61 77.0141 133 61 86.9859 133 61 
77 133.014 61 76.0141 134 61 86.9859 134 61 
76.0141 135 61 86.9859 135 61 76.0141 136 61 
86.9859 136 61 76.0141 137 61 85.9859 137 61 
86 136.986 61 76.0141 138 61 84.9859 138 61 
85 137.986 61 76.0141 139 61 84.9859 139 61 
76 140 60.0141 76 139.014 61 75.0141 140 61 
84.9859 140 61 76 141 60.0141 75.0141 141 61 
83.9859 141 61 84 140.986 61 76 141.986 61 
77 141.986 61 78 141.986 61 79 141.986 61 
80 141.986 61 81 141.986 61 82 142 60.0141 
81.0141 142 61 82.9859 142 61 83 141.986 61 
82 143 60.0141 81.0141 143 61 82.9859 143 61 
82 143.986 61 78 132 61.9859 78.0141 132 62 
79 131.014 62 80 131.014 62 81 131.014 62 
82 131.014 62 83 131.014 62 84 131.014 62 
85 131.014 62 86 131.014 62 86.9859 132 62 
78 133 61.9859 78.0141 133 62 86.9859 133 62 
77 134 61.9859 78 134 61.9859 79 133.986 62 
79 134 61.9859 80 133.986 62 80 134 61.9859 
81 133.986 62 81 134 61.9859 82 133.986 62 
82 134 61.9859 82.0141 134 62 86.9859 134 62 
77 135 61.9859 78 135 61.9859 79 135 61.9859 
80 135 61.9859 81 135 61.9859 81.0141 135 62 
82 134.014 62 86.9859 135 62 77 136 61.9859 
78 136 61.9859 79 136 61.9859 80 136 61.9859 
80.0141 136 62 81 135.014 62 86.9859 136 62 
77 137 61.9859 78 137 61.9859 79 137 61.9859 
79.0141 137 62 80 136.014 62 86 137 61.0141 
86.9859 137 62 77 138 61.9859 78 138 61.9859 
78.0141 138 62 79 137.014 62 85 138 61.0141 
86 138 61.0141 86.9859 138 62 77 139 61.9859 
77.0141 139 62 78 138.014 62 85 139 61.0141 
85.9859 139 62 86 138.986 62 76 140 61.9859 
76.0141 140 62 77 139.014 62 84.9859 140 62 
85 139.986 62 76 140.014 62 75.0141 141 62 
84 141 61.0141 84.9859 141 62 75 142 61.0141 
75 141.014 62 74.0141 142 62 76 142 61.0141 
77 142 61.0141 78 142 61.0141 79 142 61.0141 
80 142 61.0141 81 142 61.0141 83 142 61.0141 
84 142 61.0141 84.9859 142 62 74 143 61.0141 
74 142.014 62 73.0141 143 62 75 143 61.0141 
76 143 61.0141 77 143 61.0141 78 143 61.0141 
79 143 61.0141 80 143 61.0141 81 143 61.0141 
83 143 61.0141 83.9859 143 62 84 142.986 62 
74 143.986 62 74.0141 144 62 75 144 61.0141 
76 144 61.0141 77 144 61.0141 78 144 61.0141 
79 144 61.0141 80 144 61.0141 81 144 61.0141 
82 144 61.0141 82.9859 144 62 83 143.986 62 
75 145 61.0141 74.0141 145 62 76 145 61.0141 
77 145 61.0141 78 145 61.0141 79 145 61.0141 
80 145 61.0141 81 145 61.0141 81.9859 145 62 
82 144.986 62 75 145.986 62 76 145.986 62 
77 145.986 62 78 145.986 62 79 145.986 62 
80 145.986 62 81 145.986 62 79 131.014 63 
78.0141 132 63 80 131.014 63 81 131.014 63 
82 131.014 63 83 131.014 63 84 131.014 63 
85 131.014 63 86 131.014 63 86.9859 132 63 
79 132.986 63 79 133 62.9859 80 132.986 63 
80 133 62.9859 81 132.986 63 81 133 62.9859 
81.0141 133 63 87 132.014 63 87 133 62.0141 
87.9859 133 63 82 133.986 63 82.0141 134 63 
86.9859 134 63 87 133.986 63 82 134.014 63 
81.0141 135 63 86.9859 135 63 81 135.014 63 
80.0141 136 63 86.9859 136 63 80 136.014 63 
79.0141 137 63 86.9859 137 63 79 137.014 63 
78.0141 138 63 86.9859 138 63 78 138.014 63 
77.0141 139 63 85.9859 139 63 86 138.986 63 
77 139.014 63 76.0141 140 63 84.9859 140 63 
85 139.986 63 76 140.014 63 75.0141 141 63 
84.9859 141 63 75 141.014 63 74.0141 142 63 
84.9859 142 63 74 142.014 63 73.0141 143 63 
84 143 62.0141 84.9859 143 63 74 144 62.0141 
73.0141 144 63 82.9859 144 63 83 143.986 63 
84 143.986 63 74 144.986 63 74.0141 145 63 
82 145 62.0141 82.9859 145 63 75 145.986 63 
76 145.986 63 77 145.986 63 78 145.986 63 
79 145.986 63 80 145.986 63 81 145.986 63 
82 145.986 63 79 132 63.9859 80 132 63.9859 
81 132 63.9859 82 132 63.9859 83 132 63.9859 
84 132 63.9859 84.0141 132 64 85 131.014 64 
86 131.014 64 87 132 63.0141 87 131.014 64 
88 132 63.0141 88 131.014 64 88.9859 132 64 
82 133 63.9859 83 133 63.9859 83.0141 133 64 
84 132.014 64 88 133 63.0141 88.9859 133 64 
83 133.014 64 82.0141 134 64 87 134 63.0141 
88 134 63.0141 88.9859 134 64 82 134.014 64 
81.0141 135 64 87 135 63.0141 87.9859 135 64 
88 134.986 64 81 135.014 64 80.0141 136 64 
86.9859 136 64 87 135.986 64 80 136.014 64 
79.0141 137 64 86.9859 137 64 79 137.014 64 
78.0141 138 64 86.9859 138 64 78 138.014 64 
77.0141 139 64 86 139 63.0141 86.9859 139 64 
77 139.014 64 76.0141 140 64 85 140 63.0141 
86 140 63.0141 86.9859 140 64 76 140.014 64 
75.0141 141 64 85 141 63.0141 86 141 63.0141 
86.9859 141 64 75 141.014 64 74.0141 142 64 
85 142 63.0141 86 142 63.0141 86.9859 142 64 
74 143 63.9859 74.0141 143 64 85 143 63.0141 
85.9859 143 64 86 142.986 64 74 144 63.9859 
74.0141 144 64 83 144 63.0141 84 144 63.0141 
84.9859 144 64 85 143.986 64 74 144.014 64 
73.0141 145 64 74 145 63.0141 83 145 63.0141 
83.9859 145 64 84 144.986 64 74 145.986 64 
75 146 63.0141 74.0141 146 64 76 146 63.0141 
77 146 63.0141 78 146 63.0141 79 146 63.0141 
80 146 63.0141 81 146 63.0141 82 146 63.0141 
82.9859 146 64 83 145.986 64 75 147 63.0141 
74.0141 147 64 76 147 63.0141 77 147 63.0141 
78 147 63.0141 79 147 63.0141 80 147 63.0141 
81 147 63.0141 81.9859 147 64 82 146.986 64 
75 148 63.0141 74.0141 148 64 76 148 63.0141 
77 148 63.0141 78 148 63.0141 79 148 63.0141 
80 148 63.0141 80.9859 148 64 81 147.986 64 
75 149 63.0141 74.0141 149 64 76 149 63.0141 
77 149 63.0141 78 149 63.0141 79 149 63.0141 
79.9859 149 64 80 148.986 64 75 150 63.0141 
74.0141 150 64 76 150 63.0141 76.9859 150 64 
77 149.986 64 78 149.986 64 79 149.986 64 
75 151 63.0141 74.0141 151 64 75.9859 151 64 
76 150.986 64 75 151.986 64 84 132 64.0141 
84 131.014 65 83.0141 132 65 85 131.014 65 
86 131.014 65 87 131.014 65 88 131.014 65 
88.9859 132 65 82 133 64.0141 82 132.014 65 
81.0141 133 65 83 133 64.0141 83 132.014 65 
88.9859 133 65 82 134 64.0141 81.0141 134 65 
88.9859 134 65 81 135 64.0141 81 134.014 65 
80.0141 135 65 87.9859 135 65 88 134.986 65 
80.0141 136 65 86.9859 136 65 87 135.986 65 
80 136.014 65 79.0141 137 65 86.9859 137 65 
79 137.014 65 78.0141 138 65 86.9859 138 65 
78 138.014 65 77.0141 139 65 86.9859 139 65 
77 139.014 65 76.0141 140 65 86.9859 140 65 
76 140.014 65 75.0141 141 65 86.9859 141 65 
75 141.014 65 74.0141 142 65 86.9859 142 65 
74.0141 143 65 85.9859 143 65 86 142.986 65 
74.0141 144 65 84.9859 144 65 85 143.986 65 
74 144.014 65 73.0141 145 65 84 145 64.0141 
84.9859 145 65 74 145.986 65 74.0141 146 65 
82.9859 146 65 83 145.986 65 84 145.986 65 
74.0141 147 65 82 147 64.0141 82.9859 147 65 
74.0141 148 65 80.9859 148 65 81 147.986 65 
82 147.986 65 74 149 64.0141 74 148.014 65 
73.0141 149 65 79.9859 149 65 80 148.986 65 
74 150 64.0141 73.0141 150 65 76.9859 150 65 
77 149.986 65 78 149.986 65 79 149.986 65 
74 150.986 65 74.0141 151 65 75.9859 151 65 
76 150.986 65 75 151.986 65 83 132 65.0141 
83 131.014 66 82.0141 132 66 84 131.014 66 
85 131.014 66 86 131.014 66 87 131.014 66 
88 131.014 66 88.9859 132 66 82 132.014 66 
81.0141 133 66 88.9859 133 66 81 134 65.0141 
81 133.014 66 80.0141 134 66 88.9859 134 66 
80.0141 135 66 87.9859 135 66 88 134.986 66 
80.0141 136 66 86.9859 136 66 87 135.986 66 
80 136.014 66 79.0141 137 66 86.9859 137 66 
79 137.014 66 78.0141 138 66 86.9859 138 66 
78 138.014 66 77.0141 139 66 86.9859 139 66 
77 139.014 66 76.0141 140 66 86.9859 140 66 
76 140.014 66 75.0141 141 66 86.9859 141 66 
75 142 65.9859 76 141.986 66 76 142 65.9859 
76.0141 142 66 86.9859 142 66 75 143 65.9859 
75.0141 143 66 76 142.014 66 86 143 65.0141 
86.9859 143 66 75 143.014 66 74.0141 144 66 
85 144 65.0141 86 144 65.0141 86.9859 144 66 
74 144.014 66 73.0141 145 66 85 145 65.0141 
[...]
POINT_DATA 4356
SCALARS scalars float
LOOKUP_TABLE default
1 1 1 1 1 1 1 1 1 
1 1 1 1 1 1 1 1 1 
1 1 1 1 1 1 1 1 1 
1 1 1 1 1 1 1 1 1 
1 1 1 1 1 1 1 1 1 
1 1 1 1 1 1 1 1 1 
1 1 1 1 1 1 1 1 1 
1 1 1 1 1 1 1 1 1 
1 1 1 1 1 1 1 1 1 
1 1 1 1 1 1 1 1 1 
1 1 1 1 1 1 1 1 1 
1 1 1 1 1 1 1 1 1 
1 1 1 1 1 1 1 1 1 
1 1 1 1 1 1 1 1 1 
1 1 1 1 1 1 1 1 1 
1 1 1 1 1 1 1 1 1 
1 1 1 1 1 1 1 1 1 
1 1 1 1 1 1 1 1 1 
1 1 1 1 1 1 1 1 1 
1 1 1 1 1 1 1 1 1 
1 1 1 1 1 1 1 1 1 
1 1 1 1 1 1 1 1 1 
1 1 1 1 1 1 1 1 1 
1 1 1 1 1 1 1 1 1 
1 1 1 1 1 1 1 1 1 
1 1 1 1 1 1 1 1 1 
1 1 1 1 1 1 1 1 1 
1 1 1 1 1 1 1 1 1 
1 1 1 1 1 1 1 1 1 
1 1 1 1 1 1 1 1 1 
1 1 1 1 1 1 1 1 1 
1 1 1 1 1 1 1 1 1 
1 1 1 1 1 1 1 1 1 
1 1 1 1 1 1 1 1 1 
1 1 1 1 1 1 1 1 1 
1 1 1 1 1 1 1 1 1 
1 1 1 1 1 1 1 1 1 
1 1 1 1 1 1 1 1 1 
1 1 1 1 1 1 1 1 1 
1 1 1 1 1 1 1 1 1 
1 1 1 1 1 1 1 1 1 
1 1 1 1 1 1 1 1 1 
1 1 1 1 1 1 1 1 1 
1 1 1 1 1 1 1 1 1 
1 1 1 1 1 1 1 1 1 
1 1 1 1 1 1 1 1 1 
1 1 1 1 1 1 1 1 1 
1 1 1 1 1 1 1 1 1 
1 1 1 1 1 1 1 1 1 
1 1 1 1 1 1 1 1 1 
1 1 1 1 1 1 1 1 1 
1 1 1 1 1 1 1 1 1 
1 1 1 1 1 1 1 1 1 
1 1 1 1 1 1 1 1 1 
1 1 1 1 1 1 1 1 1 
1 1 1 1 1 1 1 1 1 
1 1 1 1 1 1 1 1 1 
1 1 1 1 1 1 1 1 1 
1 1 1 1 1 1 1 1 1 
1 1 1 1 1 1 1 1 1 
1 1 1 1 1 1 1 1 1 
1 1 1 1 1 1 1 1 1 
1 1 1 1 1 1 1 1 1 
1 1 1 1 1 1 1 1 1 
1 1 1 1 1 1 1 1 1 
1 1 1 1 1 1 1 1 1 
1 1 1 1 1 1 1 1 1 
1 1 1 1 1 1 1 1 1 
1 1 1 1 1 1 1 1 1 
1 1 1 1 1 1 1 1 1 
1 1 1 1 1 1 1 1 1 
1 1 1 1 1 1 1 1 1 
1 1 1 1 1 1 1 1 1 
1 1 1 1 1 1 1 1 1 
1 1 1 1 1 1 1 1 1 
1 1 1 1 1 1 1 1 1 
1 1 1 1 1 1 1 1 1 
1 1 1 1 1 1 1 1 1 
1 1 1 1 1 1 1 1 1 
1 1 1 1 1 1 1 1 1 
1 1 1 1 1 1 1 1 1 
1 1 1 1 1 1 1 1 1 
1 1 1 1 1 1 1 1 1 
1 1 1 1 1 1 1 1 1 
1 1 1 1 1 1 1 1 1 
1 1 1 1 1 1 1 1 1 
1 1 1 1 1 1 1 1 1 
1 1 1 1 1 1 1 1 1 
1 1 1 1 1 1 1 1 1 
1 1 1 1 1 1 1 1 1 
1 1 1 1 1 1 1 1 1 
1 1 1 1 1 1 1 1 1 
1 1 1 1 1 1 1 1 1 
1 1 1 1 1 1 1 1 1 
1 1 1 1 1 1 1 1 1 
1 1 1 1 1 1 1 1 1 
1 1 1 1 1 1 1 1 1 
1 1 1 1 1 1 1 1 1 
1 1 1 1 1 1 1 1 1 
1 1 1 1 1 1 1 1 1 
1 1 1 1 1 1 1 1 1 
1 1 1 1 1 1 1 1 1 
1 1 1 1 1 1 1 1 1 
1 1 1 1 1 1 1 1 1 
1 1 1 1 1 1 1 1 1 
1 1 1 1 1 1 1 1 1 
1 1 1 1 1 1 1 1 1 
1 1 1 1 1 1 1 1 1 
1 1 1 1 1 1 1 1 1 
1 1 1 1 1 1 1 1 1 
1 1 1 1 1 1 1 1 1 
1 1 1 1 1 1 1 1 1 
1 1 1 1 1 1 1 1 1 
1 1 1 1 1 1 1 1 1 
1 1 1 1 1 1 1 1 1 
1 1 1 1 1 1 1 1 1 
1 1 1 1 1 1 1 1 1 
1 1 1 1 1 1 1 1 1 
1 1 1 1 1 1 1 1 1 
1 1 1 1 1 1 1 1 1 
1 1 1 1 1 1 1 1 1 
1 1 1 1 1 1 1 1 1 
1 1 1 1 1 1 1 1 1 
1 1 1 1 1 1 1 1 1 
1 1 1 1 1 1 1 1 1 
1 1 1 1 1 1 1 1 1 
1 1 1 1 1 1 1 1 1 
1 1 1 1 1 1 1 1 1 
1 1 1 1 1 1 1 1 1 
1 1 1 1 1 1 1 1 1 
1 1 1 1 1 1 1 1 1 
1 1 1 1 1 1 1 1 1 
1 1 1 1 1 1 1 1 1 
1 1 1 1 1 1 1 1 1 
1 1 1 1 1 1 1 1 1 
1 1 1 1 1 1 1 1 1 
1 1 1 1 1 1 1 1 1 
1 1 1 1 1 1 1 1 1 
1 1 1 1 1 1 1 1 1 
1 1 1 1 1 1 1 1 1 
1 1 1 1 1 1 1 1 1 
1 1 1 1 1 1 1 1 1 
1 1 1 1 1 1 1 1 1 
1 1 1 1 1 1 1 1 1 
1 1 1 1 1 1 1 1 1 
1 1 1 1 1 1 1 1 1 
1 1 1 1 1 1 1 1 1 
1 1 1 1 1 1 1 1 1 
1 1 1 1 1 1 1 1 1 
1 1 1 1 1 1 1 1 1 
1 1 1 1 1 1 1 1 1 
1 1 1 1 1 1 1 1 1 
1 1 1 1 1 1 1 1 1 
1 1 1 1 1 1 1 1 1 
1 1 1 1 1 1 1 1 1 
1 1 1 1 1 1 1 1 1 
1 1 1 1 1 1 1 1 1 
1 1 1 1 1 1 1 1 1 
1 1 1 1 1 1 1 1 1 
1 1 1 1 1 1 1 1 1 
1 1 1 1 1 1 1 1 1 
1 1 1 1 1 1 1 1 1 
1 1 1 1 1 1 1 1 1 
1 1 1 1 1 1 1 1 1 
1 1 1 1 1 1 1 1 1 
1 1 1 1 1 1 1 1 1 
1 1 1 1 1 1 1 1 1 
1 1 1 1 1 1 1 1 1 
1 1 1 1 1 1 1 1 1 
1 1 1 1 1 1 1 1 1 
1 1 1 1 1 1 1 1 1 
1 1 1 1 1 1 1 1 1 
1 1 1 1 1 1 1 1 1 
1 1 1 1 1 1 1 1 1 
1 1 1 1 1 1 1 1 1 
1 1 1 1 1 1 1 1 1 
1 1 1 1 1 1 1 1 1 
1 1 1 1 1 1 1 1 1 
1 1 1 1 1 1 1 1 1 
1 1 1 1 1 1 1 1 1 
1 1 1 1 1 1 1 1 1 
1 1 1 1 1 1 1 1 1 
1 1 1 1 1 1 1 1 1 
1 1 1 1 1 1 1 1 1 
1 1 1 1 1 1 1 1 1 
1 1 1 1 1 1 1 1 1 
1 1 1 1 1 1 1 1 1 
1 1 1 1 1 1 1 1 1 
1 1 1 1 1 1 1 1 1 
1 1 1 1 1 1 1 1 1 
1 1 1 1 1 1 1 1 1 
1 1 1 1 1 1 1 1 1 
1 1 1 1 1 1 1 1 1 
1 1 1 1 1 1 1 1 1 
1 1 1 1 1 1 1 1 1 
1 1 1 1 1 1 1 1 1 
1 1 1 1 1 1 1 1 1 
1 1 1 1 1 1 1 1 1 
1 1 1 1 1 1 1 1 1 
1 1 1 1 1 1 1 1 1 
1 1 1 1 1 1 1 1 1 
1 1 1 1 1 1 1 1 1 
1 1 1 1 1 1 1 1 1 
1 1 1 1 1 1 1 1 1 
1 1 1 1 1 1 1 1 1 
1 1 1 1 1 1 1 1 1 
1 1 1 1 1 1 1 1 1 
1 1 1 1 1 1 1 1 1 
1 1 1 1 1 1 1 1 1 
1 1 1 1 1 1 1 1 1 
1 1 1 1 1 1 1 1 1 
1 1 1 1 1 1 1 1 1 
1 1 1 1 1 1 1 1 1 
1 1 1 1 1 1 1 1 1 
1 1 1 1 1 1 1 1 1 
1 1 1 1 1 1 1 1 1 
1 1 1 1 1 1 1 1 1 
1 1 1 1 1 1 1 1 1 
1 1 1 1 1 1 1 1 1 
1 1 1 1 1 1 1 1 1 
1 1 1 1 1 1 1 1 1 
1 1 1 1 1 1 1 1 1 
1 1 1 1 1 1 1 1 1 
1 1 1 1 1 1 1 1 1 
1 1 1 1 1 1 1 1 1 
1 1 1 1 1 1 1 1 1 
1 1 1 1 1 1 1 1 1 
1 1 1 1 1 1 1 1 1 
1 1 1 1 1 1 1 1 1 
1 1 1 1 1 1 1 1 1 
1 1 1 1 1 1 1 1 1 
1 1 1 1 1 1 1 1 1 
1 1 1 1 1 1 1 1 1 
1 1 1 1 1 1 1 1 1 
1 1 1 1 1 1 1 1 1 
1 1 1 1 1 1 1 1 1 
1 1 1 1 1 1 1 1 1 
1 1 1 1 1 1 1 1 1 
1 1 1 1 1 1 1 1 1 
1 1 1 1 1 1 1 1 1 
1 1 1 1 1 1 1 1 1 
1 1 1 1 1 1 1 1 1 
1 1 1 1 1 1 1 1 1 
1 1 1 1 1 1 1 1 1 
1 1 1 1 1 1 1 1 1 
1 1 1 1 1 1 1 1 1 
1 1 1 1 1 1 1 1 1 
1 1 1 1 1 1 1 1 1 
1 1 1 1 1 1 1 1 1 
1 1 1 1 1 1 1 1 1 
1 1 1 1 1 1 1 1 1 
1 1 1 1 1 1 1 1 1 
1 1 1 1 1 1 1 1 1 
1 1 1 1 1 1 1 1 1 
1 1 1 1 1 1 1 1 1 
1 1 1 1 1 1 1 1 1 
1 1 1 1 1 1 1 1 1 
1 1 1 1 1 1 1 1 1 
1 1 1 1 1 1 1 1 1 
1 1 1 1 1 1 1 1 1 
1 1 1 1 1 1 1 1 1 
1 1 1 1 1 1 1 1 1 
1 1 1 1 1 1 1 1 1 
1 1 1 1 1 1 1 1 1 
1 1 1 1 1 1 1 1 1 
1 1 1 1 1 1 1 1 1 
1 1 1 1 1 1 1 1 1 
1 1 1 1 1 1 1 1 1 
1 1 1 1 1 1 1 1 1 
1 1 1 1 1 1 1 1 1 
1 1 1 1 1 1 1 1 1 
1 1 1 1 1 1 1 1 1 
1 1 1 1 1 1 1 1 1 
1 1 1 1 1 1 1 1 1 
1 1 1 1 1 1 1 1 1 
1 1 1 1 1 1 1 1 1 
1 1 1 1 1 1 1 1 1 
1 1 1 1 1 1 1 1 1 
1 1 1 1 1 1 1 1 1 
1 1 1 1 1 1 1 1 1 
1 1 1 1 1 1 1 1 1 
1 1 1 1 1 1 1 1 1 
1 1 1 1 1 1 1 1 1 
1 1 1 1 1 1 1 1 1 
1 1 1 1 1 1 1 1 1 
1 1 1 1 1 1 1 1 1 
1 1 1 1 1 1 1 1 1 
1 1 1 1 1 1 1 1 1 
1 1 1 1 1 1 1 1 1 
1 1 1 1 1 1 1 1 1 
1 1 1 1 1 1 1 1 1 
1 1 1 1 1 1 1 1 1 
1 1 1 1 1 1 1 1 1 
1 1 1 1 1 1 1 1 1 
1 1 1 1 1 1 1 1 1 
1 1 1 1 1 1 1 1 1 
1 1 1 1 1 1 1 1 1 
1 1 1 1 1 1 1 1 1 
1 1 1 1 1 1 1 1 1 
1 1 1 1 1 1 1 1 1 
1 1 1 1 1 1 1 1 1 
1 1 1 1 1 1 1 1 1 
1 1 1 1 1 1 1 1 1 
1 1 1 1 1 1 1 1 1 
1 1 1 1 1 1 1 1 1 
1 1 1 1 1 1 1 1 1 
1 1 1 1 1 1 1 1 1 
1 1 1 1 1 1 1 1 1 
1 1 1 1 1 1 1 1 1 
1 1 1 1 1 1 1 1 1 
1 1 1 1 1 1 1 1 1 
1 1 1 1 1 1 1 1 1 
1 1 1 1 1 1 1 1 1 
1 1 1 1 1 1 1 1 1 
1 1 1 1 1 1 1 1 1 
1 1 1 1 1 1 1 1 1 
1 1 1 1 1 1 1 1 1 
1 1 1 1 1 1 1 1 1 
1 1 1 1 1 1 1 1 1 
1 1 1 1 1 1 1 1 1 
1 1 1 1 1 1 1 1 1 
1 1 1 1 1 1 1 1 1 
1 1 1 1 1 1 1 1 1 
1 1 1 1 1 1 1 1 1 
1 1 1 1 1 1 1 1 1 
1 1 1 1 1 1 1 1 1 
1 1 1 1 1 1 1 1 1 
1 1 1 1 1 1 1 1 1 
1 1 1 1 1 1 1 1 1 
1 1 1 1 1 1 1 1 1 
1 1 1 1 1 1 1 1 1 
1 1 1 1 1 1 1 1 1 
1 1 1 1 1 1 1 1 1 
1 1 1 1 1 1 1 1 1 
1 1 1 1 1 1 1 1 1 
1 1 1 1 1 1 1 1 1 
1 1 1 1 1 1 1 1 1 
1 1 1 1 1 1 1 1 1 
1 1 1 1 1 1 1 1 1 
1 1 1 1 1 1 1 1 1 
1 1 1 1 1 1 1 1 1 
1 1 1 1 1 1 1 1 1 
1 1 1 1 1 1 1 1 1 
1 1 1 1 1 1 1 1 1 
1 1 1 1 1 1 1 1 1 
1 1 1 1 1 1 1 1 1 
1 1 1 1 1 1 1 1 1 
1 1 1 1 1 1 1 1 1 
1 1 1 1 1 1 1 1 1 
1 1 1 1 1 1 1 1 1 
1 1 1 1 1 1 1 1 1 
1 1 1 1 1 1 1 1 1 
1 1 1 1 1 1 1 1 1 
1 1 1 1 1 1 1 1 1 
1 1 1 1 1 1 1 1 1 
1 1 1 1 1 1 1 1 1 
1 1 1 1 1 1 1 1 1 
1 1 1 1 1 1 1 1 1 
1 1 1 1 1 1 1 1 1 
1 1 1 1 1 1 1 1 1 
1 1 1 1 1 1 1 1 1 
1 1 1 1 1 1 1 1 1 
1 1 1 1 1 1 1 1 1 
1 1 1 1 1 1 1 1 1 
1 1 1 1 1 1 1 1 1 
1 1 1 1 1 1 1 1 1 
1 1 1 1 1 1 1 1 1 
1 1 1 1 1 1 1 1 1 
1 1 1 1 1 1 1 1 1 
1 1 1 1 1 1 1 1 1 
1 1 1 1 1 1 1 1 1 
1 1 1 1 1 1 1 1 1 
1 1 1 1 1 1 1 1 1 
1 1 1 1 1 1 1 1 1 
1 1 1 1 1 1 1 1 1 
1 1 1 1 1 1 1 1 1 
1 1 1 1 1 1 1 1 1 
1 1 1 1 1 1 1 1 1 
1 1 1 1 1 1 1 1 1 
1 1 1 1 1 1 1 1 1 
1 1 1 1 1 1 1 1 1 
1 1 1 1 1 1 1 1 1 
1 1 1 1 1 1 1 1 1 
1 1 1 1 1 1 1 1 1 
1 1 1 1 1 1 1 1 1 
1 1 1 1 1 1 1 1 1 
1 1 1 1 1 1 1 1 1 
1 1 1 1 1 1 1 1 1 
1 1 1 1 1 1 1 1 1 
1 1 1 1 1 1 1 1 1 
1 1 1 1 1 1 1 1 1 
1 1 1 1 1 1 1 1 1 
1 1 1 1 1 1 1 1 1 
1 1 1 1 1 1 1 1 1 
1 1 1 1 1 1 1 1 1 
1 1 1 1 1 1 1 1 1 
1 1 1 1 1 1 1 1 1 
1 1 1 1 1 1 1 1 1 
1 1 1 1 1 1 1 1 1 
1 1 1 1 1 1 1 1 1 
1 1 1 1 1 1 1 1 1 
1 1 1 1 1 1 1 1 1 
1 1 1 1 1 1 1 1 1 
1 1 1 1 1 1 1 1 1 
1 1 1 1 1 1 1 1 1 
1 1 1 1 1 1 1 1 1 
1 1 1 1 1 1 1 1 1 
1 1 1 1 1 1 1 1 1 
1 1 1 1 1 1 1 1 1 
1 1 1 1 1 1 1 1 1 
1 1 1 1 1 1 1 1 1 
1 1 1 1 1 1 1 1 1 
1 1 1 1 1 1 1 1 1 
1 1 1 1 1 1 1 1 1 
1 1 1 1 1 1 1 1 1 
1 1 1 1 1 1 1 1 1 
1 1 1 1 1 1 1 1 1 
1 1 1 1 1 1 1 1 1 
1 1 1 1 1 1 1 1 1 
1 1 1 1 1 1 1 1 1 
1 1 1 1 1 1 1 1 1 
1 1 1 1 1 1 1 1 1 
1 1 1 1 1 1 1 1 1 
1 1 1 1 1 1 1 1 1 
1 1 1 1 1 1 1 1 1 
1 1 1 1 1 1 1 1 1 
1 1 1 1 1 1 1 1 1 
1 1 1 1 1 1 1 1 1 
1 1 1 1 1 1 1 1 1 
1 1 1 1 1 1 1 1 1 
1 1 1 1 1 1 1 1 1 
1 1 1 1 1 1 1 1 1 
1 1 1 1 1 1 1 1 1 
1 1 1 1 1 1 1 1 1 
1 1 1 1 1 1 1 1 1 
1 1 1 1 1 1 1 1 1 
1 1 1 1 1 1 1 1 1 
1 1 1 1 1 1 1 1 1 
1 1 1 1 1 1 1 1 1 
1 1 1 1 1 1 1 1 1 
1 1 1 1 1 1 1 1 1 
1 1 1 1 1 1 1 1 1 
1 1 1 1 1 1 1 1 1 
1 1 1 1 1 1 1 1 1 
1 1 1 1 1 1 1 1 1 
1 1 1 1 1 1 1 1 1 
1 1 1 1 1 1 1 1 1 
1 1 1 1 1 1 1 1 1 
1 1 1 1 1 1 1 1 1 
1 1 1 1 1 1 1 1 1 
1 1 1 1 1 1 1 1 1 
1 1 1 1 1 1 1 1 1 
1 1 1 1 1 1 1 1 1 
1 1 1 1 1 1 1 1 1 
1 1 1 1 1 1 1 1 1 
1 1 1 1 1 1 1 1 1 
1 1 1 1 1 1 1 1 1 
1 1 1 1 1 1 1 1 1 
1 1 1 1 1 1 1 1 1 
1 1 1 1 1 1 1 1 1 
1 1 1 1 1 1 1 1 1 
1 1 1 1 1 1 1 1 1 
1 1 1 1 1 1 1 1 1 
1 1 1 1 1 1 1 1 1 
1 1 1 1 1 1 1 1 1 
1 1 1 1 1 1 1 1 1 
1 1 1 1 1 1 1 1 1 
1 1 1 1 1 1 1 1 1 
1 1 1 1 1 1 1 1 1 
1 1 1 1 1 1 1 1 1 
1 1 1 1 1 1 1 1 1 
1 1 1 1 1 1 1 1 1 
1 1 1 1 1 1 1 1 1 
1 1 1 1 1 1 1 1 1 
1 1 1 1 1 1 1 1 1 
1 1 1 1 1 1 1 1 1 
1 1 1 1 1 1 1 1 1 
1 1 1 1 1 1 1 1 1 
1 1 1 1 1 1 1 1 1 
1 1 1 1 1 1 1 1 1 
1 1 1 1 1 1 1 1 1 
1 1 1 1 1 1 1 1 1 
1 1 1 1 1 1 1 1 1 
1 1 1 1 1 1 1 1 1 

NORMALS normals float
0 -0.0140831 -0.999901 0 -0.999901 -0.0140831 -0.702039 -0.0100291 -0.712068 
0.571891 -0.580061 -0.580061 -0.0140817 0.0140817 -0.999802 -0.707072 0.00995876 -0.707072 
0.574601 -0.574601 -0.58281 0 0 -1 0 0 -1 
0 -0.702074 -0.712104 0 0 -1 0 -0.702074 -0.712104 
0 0 -1 0 -0.702074 -0.712104 0.0140831 0 -0.999901 
0.0100291 -0.702039 -0.712068 0.707107 0 -0.707107 -0.00995876 0.707072 -0.707072 
0 0.702074 -0.712104 0 0.702074 -0.712104 0 0.702074 -0.712104 
0 0.702074 -0.712104 0.0100291 0.702039 -0.712068 -0.0140831 0 -0.999901 
-0.0100291 -0.702039 -0.712068 -0.999901 0 -0.0140831 0.0140817 -0.0140817 -0.999802 
0.00995876 -0.707072 -0.707072 0.707072 -0.00995876 -0.707072 -0.580061 0.571891 -0.580061 
-0.571891 0.580061 -0.580061 0 0.0140831 -0.999901 0.702039 0.0100291 -0.712068 
0 0.707107 -0.707107 -0.707072 -0.00995876 -0.707072 -0.0140817 -0.999802 -0.0140817 
-0.57735 -0.57735 -0.57735 0 -1 0 0.571891 -0.580061 -0.580061 
0 -0.999901 -0.0140831 0 -0.707107 -0.707107 0 -0.999901 -0.0140831 
0 -0.707107 -0.707107 0 -0.999901 -0.0140831 0 -0.707107 -0.707107 
0 -0.999901 -0.0140831 0 -0.707107 -0.707107 0 -0.999901 -0.0140831 
0.0140817 -0.0140817 -0.999802 0.0140817 -0.999802 -0.0140817 0.999802 -0.0140817 -0.0140817 
-0.0140817 -0.0140817 -0.999802 -0.57735 -0.57735 -0.57735 -0.707072 -0.707072 -0.00995876 
-0.702074 0 -0.712104 0.707107 0 -0.707107 0.999901 0 -0.0140831 
-0.0140817 -0.0140817 -0.999802 -0.707072 -0.707072 -0.00995876 -0.999802 -0.0140817 -0.0140817 
0 0 -1 0 0 -1 0 0.702074 -0.712104 
0 0.702074 -0.712104 0 0.702074 -0.712104 0 0.702074 -0.712104 
0 0.702074 -0.712104 0 0.702074 -0.712104 0.0140831 0 -0.999901 
0.999901 0 -0.0140831 -0.0140831 0 -0.999901 -0.999901 0 -0.0140831 
0 0 -1 0 0 -1 0 0 -1 
0 0 -1 0 0 -1 0 0 -1 
0 0 -1 0 0 -1 0.0140831 0 -0.999901 
0.999901 0 -0.0140831 -0.0140831 0 -0.999901 -0.999901 0 -0.0140831 
0 0 -1 0 0 -1 0 0 -1 
0 0 -1 0 0 -1 0 0 -1 
0 0 -1 0 0 -1 0.0140817 0.0140817 -0.999802 
0.999802 0.0140817 -0.0140817 -0.0140831 0 -0.999901 -0.999901 0 -0.0140831 
0 0 -1 0 0 -1 0 0 -1 
0 0 -1 0 0 -1 0 0 -1 
0 0 -1 0.0140817 0.0140817 -0.999802 0.707072 0.707072 -0.00995876 
0.707072 0.707072 -0.00995876 -0.0100291 -0.702039 -0.712068 -0.999901 0 -0.0140831 
0 -0.702074 -0.712104 0 0 -1 0 0 -1 
0 0 -1 0 0 -1 0 0 -1 
0.0140831 0 -0.999901 0.712068 0.702039 -0.0100291 0.707072 0.707072 -0.00995876 
-1 0 0 0.702074 0 -0.712104 0 0 -1 
0 0 -1 0 0 -1 0 0 -1 
0.0140831 0 -0.999901 0.999901 0 -0.0140831 -0.580061 0.571891 -0.580061 
-0.707107 0 -0.707107 0.702074 0 -0.712104 0 0 -1 
0 0 -1 0 0 -1 0 0 -1 
0.0140817 0.0140817 -0.999802 0.999802 0.0140817 -0.0140817 -0.0140817 0.0140817 -0.999802 
-0.707072 0.00995876 -0.707072 0 0.707107 -0.707107 0 0.0140831 -0.999901 
0 0.0140831 -0.999901 0 0.0140831 -0.999901 0 0.0140831 -0.999901 
0.0140817 0.0140817 -0.999802 0.707072 0.707072 -0.00995876 0.707072 0.707072 -0.00995876 
-0.0140817 0.999802 -0.0140817 0 0.999901 -0.0140831 0 0.999901 -0.0140831 
0 0.999901 -0.0140831 0 0.999901 -0.0140831 0 0.707107 -0.707107 
0.0140817 0.999802 -0.0140817 -0.580061 -0.580061 -0.571891 -0.0140831 -0.999901 0 
-0.999901 -0.0140831 0 0 -1 0 0 -1 0 
0 -1 0 0 -1 0 0 -1 0 
0 -1 0 0 -1 0 0.0140831 -0.999901 0 
0.999901 -0.0140831 0 -0.712068 -0.702039 0.0100291 1 0 0 
-0.707072 -0.707072 0.00995876 -0.999802 -0.0140817 0.0140817 1 0 0 
-0.999901 0 0.0140831 1 0 0 -0.999901 0 0.0140831 
0.999901 0.0140831 0 -0.999901 0 0.0140831 0.580061 0.580061 -0.571891 
0.580061 0.580061 -0.571891 -0.999901 0 0.0140831 0.58281 0.574601 -0.574601 
0.580061 0.580061 -0.571891 -0.712068 -0.702039 0.0100291 0.712104 0 -0.702074 
-0.712068 -0.0100291 -0.702039 -0.707107 -0.707107 0 -0.999901 -0.0140831 0 
0.999901 0.0140831 0 -0.707072 0.00995876 -0.707072 -0.999802 0.0140817 -0.0140817 
0.580061 0.580061 -0.571891 0.580061 0.580061 -0.571891 -0.00995876 0.707072 -0.707072 
0 0.712104 -0.702074 0 0.712104 -0.702074 0 0.712104 -0.702074 
0 0.712104 -0.702074 -0.574601 0.58281 -0.574601 0 0.702074 -0.712104 
-0.574601 0.574601 -0.58281 0.574601 0.574601 -0.58281 0.580061 0.580061 -0.571891 
0 0.0140831 -0.999901 -0.702039 0.0100291 -0.712068 0.702039 0.0100291 -0.712068 
0 0.707107 -0.707107 -0.712068 -0.0100291 0.702039 -0.712068 -0.0100291 0.702039 
-0.0140831 -0.999901 0 0 -1 0 0 -1 0 
0 -1 0 0 -1 0 0 -1 0 
0 -1 0 0.0140831 -0.999901 0 0.999901 -0.0140831 0 
-0.707107 0 0.707107 -0.707072 0.00995876 0.707072 0.712104 0 -0.702074 
-0.0140817 -0.0140817 0.999802 0 0 1 -0.00995876 0.707072 0.707072 
0 0.702074 0.712104 0 0.707107 0.707107 0 0.702074 0.712104 
0 0.707107 0.707107 0 0.702074 0.712104 -0.707071 0.010101 0.707071 
-0.702074 0 0.712104 -0.712104 0 0.702074 1 0 0 
-0.0140831 0 0.999901 0 0 1 0 0 1 
0 0 1 -0.574601 -0.574601 0.58281 -0.580061 -0.580061 0.571891 
-0.712068 -0.0100291 0.702039 1 0 0 -0.0140831 0 0.999901 
0 0 1 0 0 1 -0.574601 -0.574601 0.58281 
-0.580061 -0.580061 0.571891 -0.580061 -0.580061 0.571891 1 0 0 
-0.0140831 0 0.999901 0 0 1 -0.574601 -0.574601 0.58281 
-0.580061 -0.580061 0.571891 -0.580061 -0.580061 0.571891 0.580061 0.571891 -0.580061 
0.999901 0 -0.0140831 -0.0140831 0 0.999901 -0.574601 -0.574601 0.58281 
-0.580061 -0.580061 0.571891 -0.580061 -0.580061 0.571891 0.574601 0.574601 -0.58281 
0.0140817 0.0140817 -0.999802 0.999802 0.0140817 -0.0140817 -0.580061 -0.571891 0.580061 
-0.580061 -0.580061 0.571891 -0.580061 -0.580061 0.571891 0.707072 0.00995876 -0.707072 
0.707072 0.707072 -0.00995876 0.707072 0.707072 -0.00995876 -0.580061 -0.580061 0.571891 
-0.580061 -0.580061 0.571891 -0.580061 -0.580061 0.571891 0.712104 0.702074 0 
0.707072 0.707072 -0.00995876 -0.580061 -0.580061 0.571891 -0.707107 -0.707107 0 
0.580061 0.571891 -0.580061 0.999901 0 -0.0140831 -0.0140817 -0.0140817 -0.999802 
-0.707072 -0.707072 -0.00995876 -0.707072 -0.707072 -0.00995876 0 0.702074 -0.712104 
0 0.702074 -0.712104 0 0.702074 -0.712104 0 0.702074 -0.712104 
0 0.702074 -0.712104 -0.574601 0.574601 -0.58281 0.574601 0.574601 -0.58281 
0.0140817 0.0140817 -0.999802 0.999802 0.0140817 -0.0140817 -0.0140831 0 -0.999901 
-0.712068 -0.702039 -0.0100291 -0.999901 0 -0.0140831 0 0 -1 
0 0 -1 0 0 -1 0 0 -1 
0 0 -1 0 0 -1 -0.702074 0 -0.712104 
0.707072 0.00995876 -0.707072 0.57735 0.57735 -0.57735 0.57735 0.57735 -0.57735 
-0.580061 0.571891 -0.580061 -0.580061 0.571891 -0.580061 -0.0140831 0 -0.999901 
0 0 -1 0 0 -1 0 0 -1 
0 0 -1 0 0 -1 0 0 -1 
0.00995876 0.707072 -0.707072 0.707072 0.707072 -0.00995876 0.707072 0.707072 -0.00995876 
-0.0140817 0.0140817 -0.999802 -0.999802 0.0140817 -0.0140817 0 0.0140831 -0.999901 
0 0.0140831 -0.999901 0 0.0140831 -0.999901 0 0.0140831 -0.999901 
0 0.0140831 -0.999901 0.0140817 0.0140817 -0.999802 0.57735 0.57735 -0.57735 
0.57735 0.57735 -0.57735 -0.0140817 0.999802 -0.0140817 0 0.999901 -0.0140831 
0 0.999901 -0.0140831 0 0.999901 -0.0140831 0 0.999901 -0.0140831 
0 0.999901 -0.0140831 0.0140817 0.999802 -0.0140817 -0.0142828 -0.999796 0.0142828 
-0.999901 0 0.0140831 0 -0.999898 0.0142843 0 -0.999898 0.0142843 
0 -0.999901 0.0140831 0 -0.999901 0.0140831 0 -0.999901 0.0140831 
0 -1 0 0.0140831 -0.999901 0 0.580061 -0.580061 -0.571891 
-0.0100291 0.702039 0.712068 -0.00995876 0.707072 0.707072 0 0.702074 0.712104 
0 0.707107 0.707107 -0.574601 0.574601 0.58281 -0.571891 0.580061 0.580061 
-0.57735 0.57735 0.57735 0.580061 -0.571891 -0.580061 0.707107 0 -0.707107 
0.707107 0 -0.707107 -0.999802 0.0140817 0.0140817 -1 0 0 
0.58281 0.574601 -0.574601 0.580061 0.571891 -0.580061 -0.999901 -0.0140831 0 
-0.707107 -0.707107 0 0.712104 0 -0.702074 -0.707107 -0.707107 0 
-0.707107 -0.707107 0 1 0 0 -0.707107 -0.707107 0 
-0.707107 -0.707107 0 1 0 0 -0.707107 -0.707107 0 
-0.707107 -0.707107 0 0.999901 0.0140831 0 -0.707107 -0.707107 0 
-0.707107 -0.707107 0 0.580061 0.580061 -0.571891 0.580061 0.580061 -0.571891 
-0.707107 -0.707107 0 -0.707107 -0.707107 0 0.58281 0.574601 -0.574601 
0.580061 0.580061 -0.571891 -0.707107 -0.707107 0 -0.707107 -0.707107 0 
0.712104 0 -0.702074 -0.707107 -0.707107 0 -0.707107 -0.707107 0 
0.712104 0 -0.702074 -0.707072 -0.707072 0.00995876 -0.999802 -0.0140817 0.0140817 
0.57735 0.57735 -0.57735 0.707072 0.00995876 -0.707072 -0.580061 0.580061 -0.571891 
-0.999901 0.0140831 0 0.58281 0.574601 -0.574601 0.574601 0.58281 -0.574601 
0.00995876 0.707072 -0.707072 -0.580061 0.580061 -0.571891 -0.580061 0.580061 -0.571891 
0.57735 0.57735 -0.57735 0.707072 0.00995876 -0.707072 -0.0100291 0.712068 -0.702039 
0 0.712104 -0.702074 0 0.712104 -0.702074 0 0.712104 -0.702074 
0 0.712104 -0.702074 0 0.712104 -0.702074 0 0.712104 -0.702074 
0.00995876 0.707072 -0.707072 -0.0140831 0 0.999901 0 0 1 
0 0 1 0 -0.0140831 0.999901 0 -0.0140831 0.999901 
-0.702039 -0.712068 0.0100291 -0.707107 -0.707107 0 -0.0140831 -0.999901 0 
0 -1 0 0.571891 -0.580061 -0.580061 0 -0.999901 -0.0140831 
0.0140817 -0.0140817 -0.999802 0.0140817 -0.999802 -0.0140817 0.999802 -0.0140817 -0.0140817 
-0.57735 0.57735 0.57735 -0.707071 -0.707071 0.010101 -0.707107 -0.707107 0 
-0.707107 -0.707107 0 0.707107 0 -0.707107 0.999901 0 -0.0140831 
-0.707107 -0.707107 0 -0.580061 -0.580061 -0.571891 0.574601 0.574601 -0.58281 
0.0140817 0.0140817 -0.999802 0.999802 0.0140817 -0.0140817 -0.580061 -0.580061 -0.571891 
-0.580061 -0.580061 -0.571891 0.707072 0.00995876 -0.707072 0.707072 0.707072 -0.00995876 
0.707072 0.707072 -0.00995876 -0.580061 -0.580061 -0.571891 -0.707107 -0.707107 0 
0.712104 0.702074 0 0.707072 0.707072 -0.00995876 -0.707107 -0.707107 0 
-0.707107 -0.707107 0 1 0 0 -0.707107 -0.707107 0 
-0.707107 -0.707107 0 1 0 0 -0.707107 -0.707107 0 
-0.707107 -0.707107 0 0.580061 0.571891 -0.580061 0.999901 0 -0.0140831 
-0.707107 -0.707107 0 -0.707107 -0.707107 0 0.574601 0.574601 -0.58281 
0.0140831 0 -0.999901 0.999901 0 -0.0140831 -0.707107 -0.707107 0 
-0.707107 -0.707107 0 0.702074 0 -0.712104 0.0140831 0 -0.999901 
0.999901 0 -0.0140831 -0.707107 -0.707107 0 -0.999901 -0.0140831 0 
0.702074 0 -0.712104 0.0140817 0.0140817 -0.999802 0.999802 0.0140817 -0.0140817 
-0.707072 -0.00995876 0.707072 -0.712104 0 0.702074 0.707072 0.00995876 -0.707072 
0.707072 0.707072 -0.00995876 0.707072 0.707072 -0.00995876 -0.585558 -0.569064 0.577311 
-0.58281 -0.574601 0.574601 0.574601 0.574601 -0.58281 0.00995876 0.707072 -0.707072 
0.707072 0.707072 -0.00995876 0.707072 0.707072 -0.00995876 -0.585558 -0.577311 0.569064 
-0.999901 0 -0.0140831 -0.580061 0.571891 -0.580061 0.707072 0.00995876 -0.707072 
0.57735 0.57735 -0.57735 0.57735 0.57735 -0.57735 -0.712068 0.702039 -0.0100291 
-0.0100291 0.702039 -0.712068 -0.712068 0.702039 -0.0100291 0 0.702074 -0.712104 
0 0.702074 -0.712104 0 0.702074 -0.712104 0 0.702074 -0.712104 