# vtk DataFile Version 3.0
vtk output
ASCII
DATASET POLYDATA
POINTS 2100 float
110 136 50.0455 110 135.045 51 109.045 136 51 
110.955 136 51 114 136 50.0455 114 135.045 51 
113.045 136 51 114.955 136 51 118 136 50.0455 
118 135.045 51 117.045 136 51 118.955 136 51 
110 137 50.0455 109.045 137 51 111 136.045 51 
111 137 50.0455 112 137 50.0455 112 136.045 51 
113 137 50.0455 113 136.045 51 114 137 50.0455 
114.955 137 51 118 137 50.0455 117.045 137 51 
118.955 137 51 110 137.955 51 111 137.955 51 
112 137.955 51 113 137.955 51 114 137.955 51 
118 137.955 51 93 139 50.0455 93 138.045 51 
92.0455 139 51 94 139 50.0455 94 138.045 51 
94.9545 139 51 93 139.955 51 94 139.955 51 
108 135 51.0455 108 134.045 52 107.045 135 52 
108.955 135 52 110 135 51.0455 110 134.045 52 
109.045 135 52 110.955 135 52 97 136 51.0455 
97 135.045 52 96.0455 136 52 98 136 51.0455 
98 135.045 52 99 136 51.0455 99 135.045 52 
100 136 51.0455 100 135.045 52 101 136 51.0455 
101 135.045 52 102 136 51.0455 102 135.045 52 
103 136 51.0455 103 135.045 52 104 136 51.0455 
104 135.045 52 105 136 51.0455 105 135.045 52 
106 136 51.0455 106 135.045 52 107 136 51.0455 
107 135.045 52 108 136 51.0455 109 135.045 52 
109 136 51.0455 111 136 51.0455 111 135.045 52 
112 136 51.0455 112 135.045 52 113 136 51.0455 
113 135.045 52 114 135.045 52 115 136 51.0455 
115 135.045 52 116 136 51.0455 116 135.045 52 
117 136 51.0455 117 135.045 52 118 135.045 52 
119 136 51.0455 119 135.045 52 120 136 51.0455 
120 135.045 52 120.955 136 52 96 137 51.0455 
96 136.045 52 95.0455 137 52 97 137 51.0455 
98 137 51.0455 99 137 51.0455 100 137 51.0455 
101 137 51.0455 102 137 51.0455 103 137 51.0455 
104 137 51.0455 105 137 51.0455 106 137 51.0455 
107 137 51.0455 108 137 51.0455 109 137 51.0455 
115 137 51.0455 116 137 51.0455 117 137 51.0455 
119 137 51.0455 119.955 137 52 120 136.955 52 
93 138 51.0455 93 137.045 52 92.0455 138 52 
94 138 51.0455 94 137.045 52 95 138 51.0455 
95 137.045 52 96 138 51.0455 96.9545 138 52 
97 137.955 52 98 137.955 52 98.0455 138 52 
99 138 51.0455 100 138 51.0455 101 138 51.0455 
102 138 51.0455 103 138 51.0455 104 138 51.0455 
105 138 51.0455 106 138 51.0455 107 138 51.0455 
108 138 51.0455 109 138 51.0455 110 138 51.0455 
111 138 51.0455 112 138 51.0455 113 138 51.0455 
114 138 51.0455 114.955 138 52 115 137.955 52 
116 137.955 52 117 137.955 52 118 137.955 52 
119 137.955 52 92.0455 139 52 95 139 51.0455 
95.9545 139 52 96 138.955 52 99 139 51.0455 
98.0455 139 52 100 139 51.0455 101 139 51.0455 
102 139 51.0455 103 139 51.0455 104 139 51.0455 
105 139 51.0455 106 139 51.0455 107 139 51.0455 
108 139 51.0455 109 139 51.0455 110 139 51.0455 
111 139 51.0455 112 139 51.0455 113 139 51.0455 
113.955 139 52 114 138.955 52 93 140 51.0455 
92.0455 140 52 94 140 51.0455 94.9545 140 52 
95 139.955 52 99 139.955 52 100 139.955 52 
101 139.955 52 102 139.955 52 103 139.955 52 
104 139.955 52 105 139.955 52 106 139.955 52 
107 139.955 52 108 139.955 52 109 139.955 52 
110 139.955 52 111 139.955 52 112 139.955 52 
113 139.955 52 93 141 51.0455 92.0455 141 52 
93.9545 141 52 94 140.955 52 93 141.955 52 
108 134 52.0455 108 133.045 53 107.045 134 53 
108.955 134 53 110 134 52.0455 110 133.045 53 
109.045 134 53 110.955 134 53 100 135 52.0455 
100 134.045 53 99.0455 135 53 101 135 52.0455 
101 134.045 53 102 135 52.0455 102 134.045 53 
103 135 52.0455 103 134.045 53 104 135 52.0455 
104 134.045 53 105 135 52.0455 105 134.045 53 
106 135 52.0455 106 134.045 53 107 135 52.0455 
107 134.045 53 109 135 52.0455 109 134.045 53 
111 135 52.0455 111 134.045 53 112 135 52.0455 
112 134.045 53 113 135 52.0455 113 134.045 53 
114 135 52.0455 114 134.045 53 115 135 52.0455 
115 134.045 53 116 135 52.0455 116 134.045 53 
116.955 135 53 97 135.045 53 96.0455 136 53 
98 135.045 53 99 135.045 53 117 135.045 53 
118 135.045 53 119 135.045 53 120 136 52.9545 
119.955 136 53 96 136.045 53 95.0455 137 53 
117 137 52.9545 116.955 137 53 117 136.955 53 
118 136.955 53 118 137 52.9545 119 136.955 53 
119 137 52.9545 93 137.045 53 92.0455 138 53 
94 137.045 53 95 137.045 53 96.9545 138 53 
97 137.955 53 98 138 52.0455 97.0455 138 53 
114.955 138 53 115 137.955 53 116 137.955 53 
92.0455 139 53 96 139 52.0455 96.9545 139 53 
98 139 52.0455 97.0455 139 53 114 139 52.0455 
114.955 139 53 92.0455 140 53 94.9545 140 53 
95 139.955 53 96 139.955 53 98 139.955 53 
99 139.955 53 100 140 52.0455 99.0455 140 53 
100.955 140 53 101 139.955 53 102 139.955 53 
103 139.955 53 104 139.955 53 105 139.955 53 
106 139.955 53 107 139.955 53 108 139.955 53 
109 139.955 53 110 139.955 53 111 139.955 53 
112 140 52.0455 111.045 140 53 112.955 140 53 
113 139.955 53 114 139.955 53 92.0455 141 53 
94 141 52.0455 94.9545 141 53 100 141 52.0455 
99.0455 141 53 100.955 141 53 112 140.955 53 
93 141.955 53 94 141.955 53 100 142 52.0455 
99.0455 142 53 100.955 142 53 100 142.955 53 
108 133 53.0455 108 132.045 54 107.045 133 54 
108.955 133 54 101 134 53.0455 101 133.045 54 
100.045 134 54 102 134 53.0455 102 133.045 54 
103 134 53.0455 103 133.045 54 104 134 53.0455 
104 133.045 54 105 134 53.0455 105 133.045 54 
106 134 53.0455 106 133.045 54 107 134 53.0455 
107 133.045 54 109 134 53.0455 109 133.045 54 
110 133.045 54 111 134 53.0455 111 133.045 54 
112 134 53.0455 112 133.045 54 113 134 53.0455 
113 133.045 54 114 134 53.0455 114 133.045 54 
115 134 53.0455 115 133.045 54 116 134 53.0455 
116 133.045 54 116.955 134 54 100 134.045 54 
99.0455 135 54 116.955 135 54 97 135.045 54 
96.0455 136 54 98 135.045 54 99 135.045 54 
117 136 53.9545 116.955 136 54 118 136 53.9545 
119 136 53.9545 96 136.045 54 95.0455 137 54 
116.955 137 54 93 137.045 54 92.0455 138 54 
94 137.045 54 95 137.045 54 97 138 53.0455 
115 138 53.0455 116 138 53.0455 116.955 138 54 
92.0455 139 54 97 139 53.0455 115 139 53.0455 
115.955 139 54 116 138.955 54 92.0455 140 54 
95 140 53.0455 96 140 53.0455 97 140 53.0455 
98 140 53.0455 99 140 53.0455 101 140 53.0455 
102 140 53.0455 103 140 53.0455 104 140 53.0455 
105 140 53.0455 106 140 53.0455 107 140 53.0455 
108 140 53.0455 109 140 53.0455 110 140 53.0455 
111 140 53.0455 113 140 53.0455 114 140 53.0455 
114.955 140 54 115 139.955 54 92.0455 141 54 
95 141 53.0455 96 141 53.0455 97 141 53.0455 
98 141 53.0455 99 141 53.0455 101 141 53.0455 
102 141 53.0455 103 141 53.0455 104 141 53.0455 
105 141 53.0455 106 141 53.0455 107 141 53.0455 
108 141 53.0455 109 141 53.0455 110 141 53.0455 
111 141 53.0455 112 141 53.0455 113 141 53.0455 
113.955 141 54 114 140.955 54 93 142 53.0455 
92.0455 142 54 94 142 53.0455 95 142 53.0455 
96 142 53.0455 97 142 53.0455 98 142 53.0455 
99 142 53.0455 101 142 53.0455 102 142 53.0455 
103 142 53.0455 104 142 53.0455 105 142 53.0455 
106 142 53.0455 106.955 142 54 107 141.955 54 
108 141.955 54 109 141.955 54 110 141.955 54 
111 141.955 54 112 141.955 54 113 141.955 54 
92 143 53.0455 92 142.045 54 91.0455 143 54 
93 143 53.0455 94 143 53.0455 95 143 53.0455 
96 143 53.0455 97 143 53.0455 98 143 53.0455 
99 143 53.0455 100 143 53.0455 101 143 53.0455 
102 143 53.0455 103 143 53.0455 104 143 53.0455 
105 143 53.0455 105.955 143 54 106 142.955 54 
92 143.955 54 92.0455 144 54 93 144 53.0455 
94 144 53.0455 95 144 53.0455 96 144 53.0455 
97 144 53.0455 98 144 53.0455 99 144 53.0455 
100 144 53.0455 100.955 144 54 101 143.955 54 
102 143.955 54 103 143.955 54 104 143.955 54 
105 143.955 54 93 145 53.0455 92.0455 145 54 
94 145 53.0455 95 145 53.0455 96 145 53.0455 
97 145 53.0455 98 145 53.0455 99 145 53.0455 
99.9545 145 54 100 144.955 54 93 145.955 54 
94 145.955 54 95 145.955 54 96 145.955 54 
97 145.955 54 98 145.955 54 99 145.955 54 
108 132.045 55 107.045 133 55 109 133 54.0455 
109 132.045 55 110 133 54.0455 110 132.045 55 
110.955 133 55 114 133 54.0455 114 132.045 55 
113.045 133 55 115 133 54.0455 115 132.045 55 
115.955 133 55 101 133.045 55 100.045 134 55 
102 133.045 55 103 133.045 55 104 133.045 55 
105 133.045 55 106 133.045 55 107 133.045 55 
111 133.045 55 112 133.045 55 113 133.045 55 
116 133.045 55 116.955 134 55 100 134.045 55 
99.0455 135 55 116.955 135 55 97 135.045 55 
96.0455 136 55 98 135.045 55 99 135.045 55 
116.955 136 55 96 136.045 55 95.0455 137 55 
116.955 137 55 93 137.045 55 92.0455 138 55 
94 137.045 55 95 137.045 55 116.955 138 55 
92.0455 139 55 115.955 139 55 116 138.955 55 
92.0455 140 55 114.955 140 55 115 139.955 55 
92.0455 141 55 106 141 54.9545 105.955 141 55 
106 140.955 55 107 140.955 55 107 141 54.9545 
108 140.955 55 108 141 54.9545 109 140.955 55 
109 141 54.9545 110 140.955 55 110 141 54.9545 
110.045 141 55 113.955 141 55 114 140.955 55 
92.0455 142 55 106 142 54.9545 105.955 142 55 
111 141.955 55 112 141.955 55 113 141.955 55 
92 142.045 55 91.0455 143 55 100 143 54.9545 
99.9545 143 55 100 142.955 55 101 142.955 55 
101 143 54.9545 102 142.955 55 102 143 54.9545 
103 142.955 55 103 143 54.9545 104 142.955 55 
104 143 54.9545 105 142.955 55 105 143 54.9545 
92 144 54.0455 91.0455 144 55 100 144 54.9545 
99.9545 144 55 92 145 54.0455 91.0455 145 55 
98 145 54.9545 97.9545 145 55 98 144.955 55 
99 144.955 55 99 145 54.9545 92 145.955 55 
93 145.955 55 94 145.955 55 95 145.955 55 
96 145.955 55 97 145.955 55 108 133 55.9545 
109 133 55.9545 109.045 133 56 110 132.045 56 
110.955 133 56 114 132.045 56 113.045 133 56 
115 133 55.9545 114.955 133 56 101 133.045 56 
100.045 134 56 102 133.045 56 103 133.045 56 
104 133.045 56 105 133.045 56 106 133.045 56 
107 133.045 56 108 133.045 56 109 133.045 56 
111 133.045 56 112 133.045 56 113 133.045 56 
115 133.045 56 116 133.045 56 117 134 55.0455 
117 133.045 56 118 134 55.0455 118 133.045 56 
118.955 134 56 100 134.045 56 99.0455 135 56 
117 135 55.0455 117.955 135 56 118 134.955 56 
97 135.045 56 96.0455 136 56 98 135.045 56 
99 135.045 56 116.955 136 56 117 135.955 56 
96 136.045 56 95.0455 137 56 116.955 137 56 
93 138 55.9545 94 138 55.9545 94.0455 138 56 
95 137.045 56 109 138 55.9545 108.955 138 56 
109 137.955 56 110 137.955 56 110 138 55.9545 
[...]
POINT_DATA 2100
SCALARS scalars float
LOOKUP_TABLE default
1 1 1 1 1 1 1 1 1 
1 1 1 1 1 1 1 1 1 
1 1 1 1 1 1 1 1 1 
1 1 1 1 1 1 1 1 1 
1 1 1 1 1 1 1 1 1 
1 1 1 1 1 1 1 1 1 
1 1 1 1 1 1 1 1 1 
1 1 1 1 1 1 1 1 1 
1 1 1 1 1 1 1 1 1 
1 1 1 1 1 1 1 1 1 
1 1 1 1 1 1 1 1 1 
1 1 1 1 1 1 1 1 1 
1 1 1 1 1 1 1 1 1 
1 1 1 1 1 1 1 1 1 
1 1 1 1 1 1 1 1 1 
1 1 1 1 1 1 1 1 1 
1 1 1 1 1 1 1 1 1 
1 1 1 1 1 1 1 1 1 
1 1 1 1 1 1 1 1 1 
1 1 1 1 1 1 1 1 1 
1 1 1 1 1 1 1 1 1 
1 1 1 1 1 1 1 1 1 
1 1 1 1 1 1 1 1 1 
1 1 1 1 1 1 1 1 1 
1 1 1 1 1 1 1 1 1 
1 1 1 1 1 1 1 1 1 
1 1 1 1 1 1 1 1 1 
1 1 1 1 1 1 1 1 1 
1 1 1 1 1 1 1 1 1 
1 1 1 1 1 1 1 1 1 
1 1 1 1 1 1 1 1 1 
1 1 1 1 1 1 1 1 1 
1 1 1 1 1 1 1 1 1 
1 1 1 1 1 1 1 1 1 
1 1 1 1 1 1 1 1 1 
1 1 1 1 1 1 1 1 1 
1 1 1 1 1 1 1 1 1 
1 1 1 1 1 1 1 1 1 
1 1 1 1 1 1 1 1 1 
1 1 1 1 1 1 1 1 1 
1 1 1 1 1 1 1 1 1 
1 1 1 1 1 1 1 1 1 
1 1 1 1 1 1 1 1 1 
1 1 1 1 1 1 1 1 1 
1 1 1 1 1 1 1 1 1 
1 1 1 1 1 1 1 1 1 
1 1 1 1 1 1 1 1 1 
1 1 1 1 1 1 1 1 1 
1 1 1 1 1 1 1 1 1 
1 1 1 1 1 1 1 1 1 
1 1 1 1 1 1 1 1 1 
1 1 1 1 1 1 1 1 1 
1 1 1 1 1 1 1 1 1 
1 1 1 1 1 1 1 1 1 
1 1 1 1 1 1 1 1 1 
1 1 1 1 1 1 1 1 1 
1 1 1 1 1 1 1 1 1 
1 1 1 1 1 1 1 1 1 
1 1 1 1 1 1 1 1 1 
1 1 1 1 1 1 1 1 1 
1 1 1 1 1 1 1 1 1 
1 1 1 1 1 1 1 1 1 
1 1 1 1 1 1 1 1 1 
1 1 1 1 1 1 1 1 1 
1 1 1 1 1 1 1 1 1 
1 1 1 1 1 1 1 1 1 
1 1 1 1 1 1 1 1 1 
1 1 1 1 1 1 1 1 1 
1 1 1 1 1 1 1 1 1 
1 1 1 1 1 1 1 1 1 
1 1 1 1 1 1 1 1 1 
1 1 1 1 1 1 1 1 1 
1 1 1 1 1 1 1 1 1 
1 1 1 1 1 1 1 1 1 
1 1 1 1 1 1 1 1 1 
1 1 1 1 1 1 1 1 1 
1 1 1 1 1 1 1 1 1 
1 1 1 1 1 1 1 1 1 
1 1 1 1 1 1 1 1 1 
1 1 1 1 1 1 1 1 1 
1 1 1 1 1 1 1 1 1 
1 1 1 1 1 1 1 1 1 
1 1 1 1 1 1 1 1 1 
1 1 1 1 1 1 1 1 1 
1 1 1 1 1 1 1 1 1 
1 1 1 1 1 1 1 1 1 
1 1 1 1 1 1 1 1 1 
1 1 1 1 1 1 1 1 1 
1 1 1 1 1 1 1 1 1 
1 1 1 1 1 1 1 1 1 
1 1 1 1 1 1 1 1 1 
1 1 1 1 1 1 1 1 1 
1 1 1 1 1 1 1 1 1 
1 1 1 1 1 1 1 1 1 
1 1 1 1 1 1 1 1 1 
1 1 1 1 1 1 1 1 1 
1 1 1 1 1 1 1 1 1 
1 1 1 1 1 1 1 1 1 
1 1 1 1 1 1 1 1 1 
1 1 1 1 1 1 1 1 1 
1 1 1 1 1 1 1 1 1 
1 1 1 1 1 1 1 1 1 
1 1 1 1 1 1 1 1 1 
1 1 1 1 1 1 1 1 1 
1 1 1 1 1 1 1 1 1 
1 1 1 1 1 1 1 1 1 
1 1 1 1 1 1 1 1 1 
1 1 1 1 1 1 1 1 1 
1 1 1 1 1 1 1 1 1 
1 1 1 1 1 1 1 1 1 
1 1 1 1 1 1 1 1 1 
1 1 1 1 1 1 1 1 1 
1 1 1 1 1 1 1 1 1 
1 1 1 1 1 1 1 1 1 
1 1 1 1 1 1 1 1 1 
1 1 1 1 1 1 1 1 1 
1 1 1 1 1 1 1 1 1 
1 1 1 1 1 1 1 1 1 
1 1 1 1 1 1 1 1 1 
1 1 1 1 1 1 1 1 1 
1 1 1 1 1 1 1 1 1 
1 1 1 1 1 1 1 1 1 
1 1 1 1 1 1 1 1 1 
1 1 1 1 1 1 1 1 1 
1 1 1 1 1 1 1 1 1 
1 1 1 1 1 1 1 1 1 
1 1 1 1 1 1 1 1 1 
1 1 1 1 1 1 1 1 1 
1 1 1 1 1 1 1 1 1 
1 1 1 1 1 1 1 1 1 
1 1 1 1 1 1 1 1 1 
1 1 1 1 1 1 1 1 1 
1 1 1 1 1 1 1 1 1 
1 1 1 1 1 1 1 1 1 
1 1 1 1 1 1 1 1 1 
1 1 1 1 1 1 1 1 1 
1 1 1 1 1 1 1 1 1 
1 1 1 1 1 1 1 1 1 
1 1 1 1 1 1 1 1 1 
1 1 1 1 1 1 1 1 1 
1 1 1 1 1 1 1 1 1 
1 1 1 1 1 1 1 1 1 
1 1 1 1 1 1 1 1 1 
1 1 1 1 1 1 1 1 1 
1 1 1 1 1 1 1 1 1 
1 1 1 1 1 1 1 1 1 
1 1 1 1 1 1 1 1 1 
1 1 1 1 1 1 1 1 1 
1 1 1 1 1 1 1 1 1 
1 1 1 1 1 1 1 1 1 
1 1 1 1 1 1 1 1 1 
1 1 1 1 1 1 1 1 1 
1 1 1 1 1 1 1 1 1 
1 1 1 1 1 1 1 1 1 
1 1 1 1 1 1 1 1 1 
1 1 1 1 1 1 1 1 1 
1 1 1 1 1 1 1 1 1 
1 1 1 1 1 1 1 1 1 
1 1 1 1 1 1 1 1 1 
1 1 1 1 1 1 1 1 1 
1 1 1 1 1 1 1 1 1 
1 1 1 1 1 1 1 1 1 
1 1 1 1 1 1 1 1 1 
1 1 1 1 1 1 1 1 1 
1 1 1 1 1 1 1 1 1 
1 1 1 1 1 1 1 1 1 
1 1 1 1 1 1 1 1 1 
1 1 1 1 1 1 1 1 1 
1 1 1 1 1 1 1 1 1 
1 1 1 1 1 1 1 1 1 
1 1 1 1 1 1 1 1 1 
1 1 1 1 1 1 1 1 1 
1 1 1 1 1 1 1 1 1 
1 1 1 1 1 1 1 1 1 
1 1 1 1 1 1 1 1 1 
1 1 1 1 1 1 1 1 1 
1 1 1 1 1 1 1 1 1 
1 1 1 1 1 1 1 1 1 
1 1 1 1 1 1 1 1 1 
1 1 1 1 1 1 1 1 1 
1 1 1 1 1 1 1 1 1 
1 1 1 1 1 1 1 1 1 
1 1 1 1 1 1 1 1 1 
1 1 1 1 1 1 1 1 1 
1 1 1 1 1 1 1 1 1 
1 1 1 1 1 1 1 1 1 
1 1 1 1 1 1 1 1 1 
1 1 1 1 1 1 1 1 1 
1 1 1 1 1 1 1 1 1 
1 1 1 1 1 1 1 1 1 
1 1 1 1 1 1 1 1 1 
1 1 1 1 1 1 1 1 1 
1 1 1 1 1 1 1 1 1 
1 1 1 1 1 1 1 1 1 
1 1 1 1 1 1 1 1 1 
1 1 1 1 1 1 1 1 1 
1 1 1 1 1 1 1 1 1 
1 1 1 1 1 1 1 1 1 
1 1 1 1 1 1 1 1 1 
1 1 1 1 1 1 1 1 1 
1 1 1 1 1 1 1 1 1 
1 1 1 1 1 1 1 1 1 
1 1 1 1 1 1 1 1 1 
1 1 1 1 1 1 1 1 1 
1 1 1 1 1 1 1 1 1 
1 1 1 1 1 1 1 1 1 
1 1 1 1 1 1 1 1 1 
1 1 1 1 1 1 1 1 1 
1 1 1 1 1 1 1 1 1 
1 1 1 1 1 1 1 1 1 
1 1 1 1 1 1 1 1 1 
1 1 1 1 1 1 1 1 1 
1 1 1 1 1 1 1 1 1 
1 1 1 1 1 1 1 1 1 
1 1 1 1 1 1 1 1 1 
1 1 1 1 1 1 1 1 1 
1 1 1 1 1 1 1 1 1 
1 1 1 1 1 1 1 1 1 
1 1 1 1 1 1 1 1 1 
1 1 1 1 1 1 1 1 1 
1 1 1 1 1 1 1 1 1 
1 1 1 1 1 1 1 1 1 
1 1 1 1 1 1 1 1 1 
1 1 1 1 1 1 1 1 1 
1 1 1 1 1 1 1 1 1 
1 1 1 1 1 1 1 1 1 
1 1 1 1 1 1 1 1 1 
1 1 1 1 1 1 1 1 1 
1 1 1 1 1 1 1 1 1 
1 1 1 1 1 1 1 1 1 
1 1 1 1 1 1 1 1 1 
1 1 1 1 1 1 1 1 1 
1 1 1 1 1 1 1 1 1 
1 1 1 
NORMALS normals float
0 -0.0454077 -0.998969 0 -0.707107 -0.707107 -0.690103 -0.032862 -0.722965 
0.559453 -0.586094 -0.586094 0 -0.0454077 -0.998969 0 -0.998969 -0.0454077 
-0.559453 -0.586094 -0.586094 0.690103 -0.032862 -0.722965 0 -0.0454077 -0.998969 
0 -0.998969 -0.0454077 -0.690103 -0.032862 -0.722965 0.690103 -0.032862 -0.722965 
-0.0453609 0.0453609 -0.99794 -0.706742 0.0321246 -0.706742 0.56819 -0.56819 -0.595247 
0 0 -1 0 0 -1 0 -0.690476 -0.723356 
0 0 -1 -0.56819 -0.56819 -0.595247 0.0453609 0.0453609 -0.99794 
0.706742 0.0321246 -0.706742 0 0.0454077 -0.998969 -0.690103 0.032862 -0.722965 
0.690103 0.032862 -0.722965 -0.0321246 0.706742 -0.706742 0 0.690476 -0.723356 
0 0.690476 -0.723356 0 0.690476 -0.723356 0.0321246 0.706742 -0.706742 
0 0.998969 -0.0454077 -0.0454077 0 -0.998969 -0.032862 -0.690103 -0.722965 
-0.998969 0 -0.0454077 0.0454077 0 -0.998969 0.032862 -0.690103 -0.722965 
0.707107 0 -0.707107 -0.032862 0.690103 -0.722965 0.032862 0.690103 -0.722965 
0 -0.0454077 -0.998969 0 -0.707107 -0.707107 -0.559453 -0.586094 -0.586094 
0 -0.707107 -0.707107 0 -0.707107 -0.707107 0 -0.707107 -0.707107 
0 -0.707107 -0.707107 0.559453 -0.586094 -0.586094 -0.0453609 -0.0453609 -0.99794 
-0.0453609 -0.99794 -0.0453609 -0.706742 -0.706742 -0.0321246 0 -0.0454077 -0.998969 
0 -0.998969 -0.0454077 0 -0.0454077 -0.998969 0 -0.998969 -0.0454077 
0 -0.0454077 -0.998969 0 -0.707107 -0.707107 0 -0.0454077 -0.998969 
0 -0.707107 -0.707107 0 -0.0454077 -0.998969 0 -0.707107 -0.707107 
0 -0.0454077 -0.998969 0 -0.707107 -0.707107 0 -0.0454077 -0.998969 
0 -0.707107 -0.707107 0 -0.0454077 -0.998969 0 -0.707107 -0.707107 
0 -0.0454077 -0.998969 0 -0.707107 -0.707107 0 -0.0454077 -0.998969 
-0.559453 -0.586094 -0.586094 0 0 -1 0 -0.707107 -0.707107 
-0.690103 -0.032862 -0.722965 0.559453 -0.586094 -0.586094 0.559453 -0.586094 -0.586094 
0 -0.707107 -0.707107 0 -0.707107 -0.707107 -0.559453 -0.586094 -0.586094 
0 -0.707107 -0.707107 0 -0.723356 -0.690476 0.690103 -0.032862 -0.722965 
0 -0.707107 -0.707107 0 -0.0454077 -0.998969 0 -0.707107 -0.707107 
-0.690103 -0.032862 -0.722965 0 -0.998969 -0.0454077 0 -1 0 
0.690103 -0.032862 -0.722965 0 -0.998969 -0.0454077 0.0475652 0 -0.998868 
0.0475652 -0.998868 0 1 0 0 -0.0453609 -0.0453609 -0.99794 
-0.706742 -0.706742 -0.0321246 -0.706742 -0.706742 -0.0321246 0 0.0454077 -0.998969 
0 0.0454077 -0.998969 0 0 -1 0 0 -1 
0 0 -1 0 0 -1 0 0 -1 
0 0 -1 0 0 -1 0 0 -1 
0 0 -1 0 0 -1 -0.690476 0 -0.723356 
0.690103 0.032862 -0.722965 0 0.0454077 -0.998969 -0.706706 0.0336527 -0.706706 
0.722965 0.032862 -0.690103 0.707107 0.707107 0 0.723356 0.690476 0 
-0.0321246 -0.706742 -0.706742 -0.0453609 -0.99794 -0.0453609 -0.99794 -0.0453609 -0.0453609 
0 -0.707107 -0.707107 0 -0.998969 -0.0454077 0 -0.0454077 -0.998969 
-0.690103 -0.722965 -0.032862 0.0453609 0.0453609 -0.99794 0.706742 0.706742 -0.0321246 
0.690103 0.722965 -0.032862 -0.559453 0.586094 -0.586094 -0.586094 0.559453 -0.586094 
-0.0454077 0 -0.998969 0 0 -1 0 0 -1 
0 0 -1 0 0 -1 0 0 -1 
0 0 -1 0 0 -1 0 0 -1 
0 0 -1 0 0 -1 0 0.690476 -0.723356 
0 0.690476 -0.723356 0 0.690476 -0.723356 0 0.690476 -0.723356 
0.0321246 0.706742 -0.706742 0.706742 0.706742 -0.0321246 0.690103 0.722965 -0.032862 
0 0.998969 -0.0454077 0 1 0 0 0.998969 0.0454077 
0.0454077 0.998969 0 -1 0 0 0.706742 0.0321246 -0.706742 
0.57735 0.57735 -0.57735 0.57735 0.57735 -0.57735 -0.0453609 0.0453609 -0.99794 
-0.706742 0.0321246 -0.706742 0 0.0454077 -0.998969 0 0.0454077 -0.998969 
0 0.0454077 -0.998969 0 0.0454077 -0.998969 0 0.0454077 -0.998969 
0 0.0454077 -0.998969 0 0.0454077 -0.998969 0 0.0454077 -0.998969 
0 0.0454077 -0.998969 0 0.0454077 -0.998969 0 0.0454077 -0.998969 
0 0.0454077 -0.998969 0 0.0454077 -0.998969 0.0453609 0.0453609 -0.99794 
0.57735 0.57735 -0.57735 0.57735 0.57735 -0.57735 -0.032862 0.690103 -0.722965 
-0.998969 0 -0.0454077 0.0321246 0.706742 -0.706742 0.706742 0.706742 -0.0321246 
0.706742 0.706742 -0.0321246 -0.0453609 0.99794 -0.0453609 0 0.707107 -0.707107 
0 0.998969 -0.0454077 0 0.998969 -0.0454077 0 0.998969 -0.0454077 
0 0.998969 -0.0454077 0 0.998969 -0.0454077 0 0.998969 -0.0454077 
0 0.998969 -0.0454077 0 0.998969 -0.0454077 0 0.998969 -0.0454077 
0 0.998969 -0.0454077 0 0.998969 -0.0454077 0 0.707107 -0.707107 
0.0453609 0.99794 -0.0453609 0 0.0454077 -0.998969 -0.99774 0.0475114 -0.0475114 
0.559453 0.586094 -0.586094 0.57735 0.57735 -0.57735 0 0.998969 -0.0454077 
0 -0.707107 -0.707107 0 -0.707107 -0.707107 -0.559453 -0.586094 -0.586094 
0 -0.707107 -0.707107 0 -0.707107 -0.707107 0 -0.998969 -0.0454077 
0 -0.707107 -0.707107 0.559453 -0.586094 -0.586094 -0.0321246 -0.706742 -0.706742 
-0.0453609 -0.99794 -0.0453609 -0.706742 -0.706742 -0.0321246 0 -0.707107 -0.707107 
0 -0.707107 -0.707107 0 -0.707107 -0.707107 0 -0.707107 -0.707107 
0 -0.707107 -0.707107 0 -0.707107 -0.707107 0 -0.707107 -0.707107 
0 -0.707107 -0.707107 0 -0.707107 -0.707107 0 -0.707107 -0.707107 
0 -0.707107 -0.707107 0 -0.707107 -0.707107 -0.559453 -0.586094 -0.586094 
-0.559453 -0.586094 -0.586094 0 -0.707107 -0.707107 0 -0.707107 -0.707107 
0.559453 -0.586094 -0.586094 0.559453 -0.586094 -0.586094 0 -0.707107 -0.707107 
0 -0.707107 -0.707107 0 -0.707107 -0.707107 0 -0.707107 -0.707107 
0 -0.707107 -0.707107 0 -0.707107 -0.707107 0 -0.707107 -0.707107 
0 -0.707107 -0.707107 0.0321246 -0.706742 -0.706742 0.0321246 -0.706742 -0.706742 
0.706742 -0.706742 -0.0321246 -0.0454077 -0.998969 0 -0.707107 -0.707107 0 
0 -1 0 -0.690476 -0.723356 0 0.706706 -0.706706 0.0336527 
0 -0.998868 0.0475652 0.0475114 -0.99774 0.0475114 0.723356 0 0.690476 
0.707107 0 0.707107 -0.707107 -0.707107 0 -0.707107 -0.707107 0 
0.56819 0.595247 0.56819 0.586094 0.586094 0.559453 0.56819 0.56819 0.595247 
0 0.690476 0.723356 0 0.707107 0.707107 0.032862 0.690103 0.722965 
0.032862 0.722965 0.690103 -0.0454077 -0.998969 0 -0.998969 -0.0454077 0 
0 -1 0 -0.690476 -0.723356 0 0.0336527 0.706706 -0.706706 
0 0.723356 -0.690476 -0.586094 0.559453 -0.586094 -0.032862 0.690103 -0.722965 
0.595247 0.56819 -0.56819 0.56819 0.595247 -0.56819 0.032862 0.722965 -0.690103 
-1 0 0 0.57735 0.57735 -0.57735 0.0453609 0.0453609 -0.99794 
-0.706742 0.0321246 -0.706742 -0.0453609 0.0453609 -0.99794 0.57735 0.57735 -0.57735 
0.706742 0.0321246 -0.706742 -1 0 0 0.595247 0.56819 -0.56819 
0.56819 0.595247 -0.56819 0.0321246 0.706742 -0.706742 -0.0321246 0.706742 -0.706742 
-0.56819 0.595247 -0.56819 0 0.690476 -0.723356 -0.56819 0.56819 -0.595247 
0.56819 0.56819 -0.595247 0.56819 0.595247 -0.56819 0 0.723356 -0.690476 
0 0.723356 -0.690476 0 0.723356 -0.690476 0 0.723356 -0.690476 
0 0.723356 -0.690476 0 0.723356 -0.690476 0 0.723356 -0.690476 
0 0.723356 -0.690476 0 0.723356 -0.690476 -0.56819 0.595247 -0.56819 
0 0.707107 -0.707107 -0.559453 0.586094 -0.586094 0.559453 0.586094 -0.586094 
0.56819 0.595247 -0.56819 0.0321246 0.706742 -0.706742 -0.998969 0.0454077 0 
0.57735 0.57735 -0.57735 0.706742 0.0321246 -0.706742 0 0 -1 
-0.690476 0 -0.723356 0.690476 0 -0.723356 0 0.707107 -0.707107 
-0.032862 0.722965 -0.690103 0.0321246 0.706742 -0.706742 0 0.0454077 -0.998969 
-0.690103 0.032862 -0.722965 0.690103 0.032862 -0.722965 0 0.707107 -0.707107 
0 -0.707107 -0.707107 0 -0.998969 -0.0454077 -0.690103 -0.722965 -0.032862 
0.559453 -0.586094 -0.586094 -0.0321246 -0.706742 -0.706742 -0.0453609 -0.99794 -0.0453609 
-0.706742 -0.706742 -0.0321246 0 -0.707107 -0.707107 0 -0.998969 -0.0454077 
0 -0.707107 -0.707107 0 -0.998969 -0.0454077 0 -0.707107 -0.707107 
0 -0.998969 -0.0454077 0 -0.707107 -0.707107 0 -0.998969 -0.0454077 
0 -0.707107 -0.707107 0 -0.998969 -0.0454077 -0.559453 -0.586094 -0.586094 
-0.690103 -0.722965 -0.032862 0 -0.707107 -0.707107 0.559453 -0.586094 -0.586094 
0 -0.723356 -0.690476 0.559453 -0.586094 -0.586094 0 -0.998969 -0.0454077 
0 -0.707107 -0.707107 0 -0.998969 -0.0454077 0 -0.707107 -0.707107 
0 -0.998969 -0.0454077 0 -0.707107 -0.707107 0 -0.707107 -0.707107 
0 -0.707107 -0.707107 0 -0.707107 -0.707107 0.0321246 -0.706742 -0.706742 
0.0453609 -0.99794 -0.0453609 0.99794 -0.0453609 -0.0453609 -0.707107 -0.707107 0 
-0.707107 -0.707107 0 1 0 0 -0.0454077 -0.998969 0 
-0.707107 -0.707107 0 0 -1 0 -0.690476 -0.723356 0 
0.690476 0 0.723356 0.723356 0 0.690476 0 0 1 
0.0454077 0 0.998969 -0.707107 -0.707107 0 -0.707107 -0.707107 0 
1 0 0 -0.0454077 -0.998969 0 -0.998969 -0.0454077 0 
0 -1 0 -0.690476 -0.723356 0 0 0.690476 -0.723356 
0.56819 0.56819 -0.595247 0.0321246 0.706742 -0.706742 0.99794 0.0453609 -0.0453609 
-1 0 0 0 0 -1 0.706742 0.0321246 -0.706742 
0.706742 0.706742 -0.0321246 0.706742 0.706742 -0.0321246 -1 0 0 
0.56819 0.56819 -0.595247 0 0.690476 -0.723356 0 0 -1 
0 0.690476 -0.723356 -0.56819 0.56819 -0.595247 0.56819 0.56819 -0.595247 
0 0.690476 -0.723356 0 0.690476 -0.723356 0 0.690476 -0.723356 
0 0.690476 -0.723356 0 0.690476 -0.723356 0 0.690476 -0.723356 
0 0.690476 -0.723356 0 0.690476 -0.723356 0 0.690476 -0.723356 
-0.56819 0.56819 -0.595247 0.56819 0.56819 -0.595247 0.0321246 0.706742 -0.706742 
0.706742 0.706742 -0.0321246 0.706742 0.706742 -0.0321246 -1 0 0 
0.690476 0 -0.723356 0 0 -1 0 0 -1 
0 0 -1 -0.690476 0 -0.723356 0.690476 0 -0.723356 
0 0 -1 0 0 -1 0 0 -1 
0 0 -1 0 0 -1 0 0.0475652 -0.998868 
0 0.0475652 -0.998868 0 0.0475652 -0.998868 0 0.0475652 -0.998868 
0 0.0454077 -0.998969 0 0.707107 -0.707107 0.0453609 0.0453609 -0.99794 
0.706742 0.706742 -0.0321246 0.706742 0.706742 -0.0321246 -0.032862 0.690103 -0.722965 
-0.722965 -0.690103 -0.032862 0 0.690476 -0.723356 0 0 -1 
0 0 -1 0 0 -1 0 0 -1 
-0.690476 0 -0.723356 0.690476 0 -0.723356 0 0 -1 
0 0 -1 0 0 -1 0 0 -1 
0.0475114 0.0475114 -0.99774 0.707107 0.707107 0 0.690476 0.723356 0 
0 1 0 0 1 0 0 1 0 
0 0.998969 -0.0454077 0 0.998969 -0.0454077 0.0453609 0.99794 -0.0453609 
-0.0454077 0 -0.998969 -0.722965 -0.690103 -0.032862 -0.998969 0 -0.0454077 
0 0 -1 0 0 -1 0 0 -1 
0 0 -1 0 0 -1 0 0 -1 
0 0 -1 0 0.707107 -0.707107 0 0.0475652 -0.998868 
0 0.0475652 -0.998868 0 0.0475652 -0.998868 0 0.0475652 -0.998868 
0.0475114 0.0475114 -0.99774 0.707107 0.707107 0 0.707107 0.707107 0 
-0.586094 0.559453 -0.586094 -0.586094 0.559453 -0.586094 -0.0454077 0 -0.998969 
0 0 -1 0 0 -1 0 0 -1 
0 0 -1 0 0 -1 0 0 -1 
0.0475114 0.0475114 -0.99774 0.707107 0.707107 0 0.690476 0.723356 0 
0 1 0 0 1 0 0 1 0 
0.0454077 0.998969 0 -0.0453609 0.0453609 -0.99794 -0.706742 0.0321246 -0.706742 
0 0.0454077 -0.998969 0 0.0454077 -0.998969 0 0.0454077 -0.998969 
0 0.0454077 -0.998969 0 0.0475652 -0.998868 0.0475114 0.0475114 -0.99774 
0.707107 0.707107 0 0.707107 0.707107 0 -0.0453609 0.99794 -0.0453609 
0 0.998969 -0.0454077 0 0.998969 -0.0454077 0 0.998969 -0.0454077 
0 0.998969 -0.0454077 0 1 0 0.0454077 0.998969 0 
-0.0453609 -0.99794 0.0453609 -0.706742 -0.706742 0.0321246 0.56819 -0.595247 -0.56819 
0 -1 0 0.0321246 -0.706742 -0.706742 0.0453609 -0.99794 -0.0453609 
0.706742 -0.706742 -0.0321246 -0.0321246 -0.706742 -0.706742 -0.0453609 -0.99794 -0.0453609 
-0.706742 -0.706742 -0.0321246 0.032862 -0.722965 -0.690103 0.0454077 -0.998969 0 
0.707107 -0.707107 0 -0.0454077 -0.998969 0 -0.707107 -0.707107 0 
0 -1 0 0 -1 0 0 -1 0 
0 -1 0 0 -1 0 -0.690476 -0.723356 0 
0.690476 -0.723356 0 0 -1 0 -0.690476 -0.723356 0 
0.707107 -0.707107 0 0.722965 -0.032862 -0.690103 -0.707107 -0.707107 0 
-0.707107 -0.707107 0 0.723356 0 -0.690476 -0.0454077 -0.998969 0 
-0.707107 -0.707107 0 0 -1 0 -0.690476 -0.723356 0 
1 0 0 -0.707107 -0.707107 0 -0.707107 -0.707107 0 
1 0 0 -0.0453609 -0.99794 0.0453609 -0.99794 -0.0453609 0.0453609 
0 -0.998969 0.0454077 -0.690476 -0.723356 0 0.998969 0.0454077 0 
-0.998969 0 0.0454077 0.707107 0.707107 0 0.707107 0.707107 0 
-1 0 0 0.707107 0.707107 0 0.707107 0.707107 0 
-1 0 0 0.57735 0.57735 0.57735 0.586094 0.559453 0.586094 
0.559453 0.586094 0.586094 0 0.707107 0.707107 0 0.723356 0.690476 
0 0.707107 0.707107 0 0.723356 0.690476 0 0.707107 0.707107 
0 0.723356 0.690476 -0.559453 0.586094 0.586094 -0.56819 0.595247 0.56819 
-0.57735 0.57735 0.57735 0.707107 0.707107 0 0.707107 0.707107 0 
-0.723356 -0.690476 0 0.722965 0.032862 0.690103 0.706742 0.0321246 0.706742 
-0.0453609 0.99794 0.0453609 0 0.998969 0.0454077 0.0454077 0.998969 0 
-0.707107 -0.707107 0 -0.998969 -0.0454077 0 0.57735 0.57735 0.57735 
0.586094 0.559453 0.586094 0.559453 0.586094 0.586094 0 0.707107 0.707107 
0 0.723356 0.690476 0 0.707107 0.707107 0 0.723356 0.690476 
0 0.707107 0.707107 0 0.723356 0.690476 0 0.707107 0.707107 
0 0.723356 0.690476 0.0321246 0.706742 0.706742 0.032862 0.722965 0.690103 
-0.586094 0.559453 -0.586094 -0.707107 0 -0.707107 0.722965 0.032862 0.690103 
0.706742 0.0321246 0.706742 -0.706742 0.0321246 -0.706742 -0.706742 0.0321246 -0.706742 
0.56819 0.595247 0.56819 0.586094 0.586094 0.559453 0.56819 0.595247 0.56819 
0.0321246 0.706742 0.706742 0.032862 0.722965 0.690103 -0.0321246 0.706742 -0.706742 
0 0.723356 -0.690476 0 0.723356 -0.690476 0 0.723356 -0.690476 
0 0.723356 -0.690476 0.0454077 0.998969 0 -0.0321246 -0.706742 0.706742 
-0.56819 -0.595247 0.56819 -0.56819 -0.595247 0.56819 0 -1 0 
0.56819 -0.595247 -0.56819 0 -1 0 -0.56819 -0.595247 -0.56819 
0.586094 -0.586094 0.559453 0.56819 -0.595247 0.56819 -0.0454077 -0.998969 0 
-0.707107 -0.707107 0 0 -1 0 0 -1 0 
0 -1 0 0 -1 0 0 -1 0 
0 -1 0 0 -0.723356 0.690476 -0.56819 -0.595247 0.56819 
0.56819 -0.595247 -0.56819 0 -0.723356 -0.690476 -0.56819 -0.595247 -0.56819 
0.56819 -0.595247 0.56819 0 -1 0 0.690103 -0.032862 -0.722965 
0 -0.998969 -0.0454077 0.0454077 0 -0.998969 0.0475114 -0.99774 -0.0475114 
0.998969 0 -0.0454077 -0.707107 -0.707107 0 -0.707107 -0.707107 0 
0.706742 0.0321246 -0.706742 0.57735 0.57735 -0.57735 0.586094 0.559453 -0.586094 
-0.0454077 -0.998969 0 -0.586094 -0.586094 -0.559453 0 -1 0 
-0.690476 -0.723356 0 0.723356 0.690476 0 0.706742 0.706742 -0.0321246 
-0.586094 -0.586094 -0.559453 -0.586094 -0.586094 -0.559453 1 0 0 
-0.0453609 -0.0453609 0.99794 -0.690103 -0.722965 0.032862 -0.707107 -0.707107 0 
-0.586094 -0.586094 -0.559453 0.56819 0.56819 0.595247 0.586094 0.586094 0.559453 
0.56819 0.595247 0.56819 0 0.723356 0.690476 0 0.690476 0.723356 
0 0.723356 0.690476 0 0.690476 0.723356 -0.56819 0.595247 0.56819 
-0.56819 0.56819 0.595247 -0.595247 0.56819 0.56819 0.998969 0.0454077 0 
-0.722965 -0.690103 0.032862 -0.707107 -0.707107 0 -0.707107 -0.707107 0 
0.56819 0.56819 0.595247 0.586094 0.586094 0.559453 0.586094 0.586094 0.559453 
0 0 1 0 0 1 0 0 1 
-0.690476 0 0.723356 -0.723356 0 0.690476 0.707107 0.707107 0 
0.707107 0.707107 0 -0.707107 -0.707107 0 -0.998969 -0.0454077 0 
0.56819 0.56819 0.595247 0.595247 0.56819 0.56819 0.56819 0.595247 0.56819 
0 0.723356 0.690476 0 0.690476 0.723356 0 0.723356 0.690476 
0 0.690476 0.723356 0 0.723356 0.690476 0 0.690476 0.723356 
0 0.723356 0.690476 0 0.690476 0.723356 0 0.723356 0.690476 
0 0.690476 0.723356 0 0.723356 0.690476 0 0.690476 0.723356 
0 0.723356 0.690476 0 0.707107 0.707107 0.032862 0.722965 0.690103 
0 0.707107 0.707107 0 0.0454077 0.998969 0 0.0454077 0.998969 
0 0.0454077 0.998969 0 0 1 -0.690476 0 0.723356 
-0.723356 0 0.690476 0.706742 0.706742 0.0321246 0.707107 0.707107 0 
-1 0 0 0.690476 0 0.723356 0.723356 0 0.690476 
0 0 1 0 0 1 0 0 1 
0 0 1 0 0 1 0.0454077 0 0.998969 
-0.0453609 0.0453609 0.99794 -0.690103 0.032862 0.722965 -0.690103 0.032862 0.722965 
0.690103 0.722965 0.032862 0.706742 0.706742 0.0321246 -0.723356 -0.690476 0 
0.690476 0 0.723356 0.723356 0 0.690476 0 0.0454077 0.998969 