# vtk DataFile Version 3.0
vtk output
ASCII
DATASET POLYDATA
POINTS 1320 float
91 50 35.0089 91 49.0089 36 90.0089 50 36 
92 50 35.0089 92 49.0089 36 92.9911 50 36 
91 51 35.0089 90.0089 51 36 91.9911 51 36 
92 50.9911 36 91 51.9911 36 92 49 36.0089 
92 48.0089 37 91.0089 49 37 92.9911 49 37 
91 49.0089 37 90.0089 50 37 92.9911 50 37 
90 51 36.0089 90 50.0089 37 89.0089 51 37 
92 51 36.0089 93 50.0089 37 93 51 36.0089 
93.9911 51 37 90 51.9911 37 91 51.9911 37 
92 51.9911 37 93 51.9911 37 92 48.0089 38 
91.0089 49 38 92.9911 49 38 91 49.0089 38 
90.0089 50 38 93 49.0089 38 93 50 37.0089 
94 50 37.0089 94 49.0089 38 94.9911 50 38 
90 50.0089 38 89.0089 51 38 94 51 37.0089 
94.9911 51 38 89 52 37.0089 89 51.0089 38 
88.0089 52 38 90 52 37.0089 91 52 37.0089 
92 52 37.0089 93 52 37.0089 94 52 37.0089 
94.9911 52 38 89 53 37.0089 88.0089 53 38 
90 53 37.0089 91 53 37.0089 92 53 37.0089 
93 53 37.0089 93.9911 53 38 94 52.9911 38 
89 53.9911 38 90 53.9911 38 91 53.9911 38 
92 53.9911 38 93 53.9911 38 92 48.0089 39 
91.0089 49 39 92.9911 49 39 90 50 38.0089 
90 49.0089 39 89.0089 50 39 91 49.0089 39 
93 49.0089 39 94 49.0089 39 94.9911 50 39 
89 51 38.0089 89 50.0089 39 88.0089 51 39 
94.9911 51 39 88 52 38.0089 88 51.0089 39 
87.0089 52 39 94.9911 52 39 87 53 38.0089 
87 52.0089 39 86.0089 53 39 88 53 38.0089 
93.9911 53 39 94 52.9911 39 87 53.9911 39 
88 53.9911 39 89 53.9911 39 90 53.9911 39 
91 53.9911 39 92 53.9911 39 93 53.9911 39 
92 48.0089 40 91.0089 49 40 92.9911 49 40 
89 50 39.0089 89 49.0089 40 88.0089 50 40 
90 49.0089 40 91 49.0089 40 93 49.0089 40 
94 49.0089 40 94.9911 50 40 88 51 39.0089 
88 50.0089 40 87.0089 51 40 94.9911 51 40 
87 52 39.0089 87 51.0089 40 86.0089 52 40 
94.9911 52 40 86.0089 53 40 94 53 39.0089 
94.9911 53 40 87 54 39.0089 86.0089 54 40 
88 54 39.0089 89 54 39.0089 90 54 39.0089 
91 54 39.0089 92 54 39.0089 93 54 39.0089 
94 54 39.0089 94.9911 54 40 87 55 39.0089 
86.0089 55 40 88 55 39.0089 89 55 39.0089 
90 55 39.0089 91 55 39.0089 92 55 39.0089 
93 55 39.0089 94 55 39.0089 94.9911 55 40 
87 55.9911 40 88 55.9911 40 89 55.9911 40 
90 55.9911 40 91 55.9911 40 92 55.9911 40 
92.0089 56 40 93 56 39.0089 94 56 39.0089 
94.9911 56 40 93 57 39.0089 92.0089 57 40 
93.9911 57 40 94 56.9911 40 93 57.9911 40 
92 48 40.0089 92 47.0089 41 91.0089 48 41 
92.9911 48 41 89 49 40.0089 89 48.0089 41 
88.0089 49 41 90 49 40.0089 90 48.0089 41 
91 49 40.0089 91 48.0089 41 93 49 40.0089 
93 48.0089 41 93.9911 49 41 88 50 40.0089 
88 49.0089 41 87.0089 50 41 94 49.0089 41 
94.9911 50 41 87 51 40.0089 87 50.0089 41 
86.0089 51 41 94.9911 51 41 86.0089 52 41 
94.9911 52 41 86.0089 53 41 94.9911 53 41 
86.0089 54 41 94.9911 54 41 86.0089 55 41 
94.9911 55 41 87 55.9911 41 88 56 40.0089 
87.0089 56 41 88.9911 56 41 89 55.9911 41 
90 55.9911 41 91 55.9911 41 92 56 40.0089 
91.0089 56 41 94.9911 56 41 88 56.9911 41 
92 56.9911 41 92.0089 57 41 93.9911 57 41 
94 56.9911 41 93 57.9911 41 92 47 41.0089 
92 46.0089 42 91.0089 47 42 92.9911 47 42 
89 48 41.0089 89 47.0089 42 88.0089 48 42 
90 48 41.0089 90 47.0089 42 91 48 41.0089 
91 47.0089 42 93 48 41.0089 93 47.0089 42 
94 48 41.0089 94 47.0089 42 94.9911 48 42 
88 49 41.0089 88 48.0089 42 87.0089 49 42 
94 49 41.0089 94.9911 49 42 87 50 41.0089 
87 49.0089 42 86.0089 50 42 94.9911 50 42 
86.0089 51 42 94.9911 51 42 86.0089 52 42 
94.9911 52 42 86.0089 53 42 94.9911 53 42 
86.0089 54 42 94.9911 54 42 86.0089 55 42 
94.9911 55 42 87 56 41.0089 86.0089 56 42 
89 56 41.0089 90 56 41.0089 91 56 41.0089 
94.9911 56 42 87 57 41.0089 86.0089 57 42 
88 57 41.0089 89 57 41.0089 90 57 41.0089 
91 57 41.0089 92 57 41.0089 94 57 41.0089 
94.9911 57 42 87 57.9911 42 88 57.9911 42 
89 57.9911 42 90 57.9911 42 91 57.9911 42 
92 57.9911 42 93 58 41.0089 92.0089 58 42 
94 58 41.0089 94.9911 58 42 93 59 41.0089 
92.0089 59 42 94 59 41.0089 94.9911 59 42 
93 59.9911 42 94 59.9911 42 92 46.0089 43 
91.0089 47 43 92.9911 47 43 88 48 42.0089 
88 47.0089 43 87.0089 48 43 89 47.0089 43 
90 47.0089 43 91 47.0089 43 93 47.0089 43 
94 47.0089 43 94.9911 48 43 87 49 42.0089 
87 48.0089 43 86.0089 49 43 94.9911 49 43 
86 50 42.0089 86 49.0089 43 85.0089 50 43 
94.9911 50 43 86 51 42.0089 85.0089 51 43 
94.9911 51 43 86 52 42.0089 85.0089 52 43 
94.9911 52 43 86 53 42.0089 85.0089 53 43 
94.9911 53 43 86 54 42.0089 85.0089 54 43 
94.9911 54 43 86 55 42.0089 85.0089 55 43 
94.9911 55 43 96 55 42.0089 96 54.0089 43 
95.0089 55 43 97 55 42.0089 97 54.0089 43 
98 55 42.0089 98 54.0089 43 98.9911 55 43 
86 56 42.0089 85.0089 56 43 94.9911 56 43 
96 56 42.0089 95.0089 56 43 96.9911 56 43 
97 55.9911 43 98 55.9911 43 85 57 42.0089 
85 56.0089 43 84.0089 57 43 86 57 42.0089 
94.9911 57 43 96 57 42.0089 95.0089 57 43 
96.9911 57 43 85 57.9911 43 85.0089 58 43 
86 58 42.0089 87 57.9911 43 86.9911 58 43 
88 57.9911 43 89 57.9911 43 90 57.9911 43 
91 57.9911 43 92 58 42.0089 91.0089 58 43 
94.9911 58 43 96 58 42.0089 95.0089 58 43 
96.9911 58 43 86 59 42.0089 85.0089 59 43 
86.9911 59 43 92 59 42.0089 91.0089 59 43 
95 58.0089 43 95 59 42.0089 96 59 42.0089 
96.9911 59 43 86 60 42.0089 85.0089 60 43 
86.9911 60 43 92 59.9911 43 93 59.9911 43 
94 60 42.0089 93.0089 60 43 94.9911 60 43 
95 59.9911 43 96 59.9911 43 86 60.9911 43 
94 60.9911 43 92 46.0089 44 91.0089 47 44 
92.9911 47 44 87 48 43.0089 87 47.0089 44 
86.0089 48 44 88 47.0089 44 89 47.0089 44 
90 47.0089 44 91 47.0089 44 93 47.0089 44 
94 47.0089 44 95 48 43.0089 95 47.0089 44 
96 48 43.0089 96 47.0089 44 96.9911 48 44 
86 49 43.0089 86 48.0089 44 85.0089 49 44 
95 49 43.0089 96 49 43.0089 96.9911 49 44 
85 50 43.0089 85 49.0089 44 84.0089 50 44 
95 50 43.0089 96 50 43.0089 96.9911 50 44 
85 51 43.0089 84.0089 51 44 95 51 43.0089 
96 51 43.0089 96.9911 51 44 85 52 43.0089 
84.0089 52 44 95 52 43.0089 96 52 43.0089 
96.9911 52 44 85 53 43.0089 84.0089 53 44 
95 53 43.0089 96 53 43.0089 96.9911 53 44 
85 54 43.0089 84.0089 54 44 95 54 43.0089 
96 54 43.0089 97 53.0089 44 97 54 43.0089 
98 54 43.0089 98 53.0089 44 98.9911 54 44 
85 55 43.0089 84.0089 55 44 95 55 43.0089 
98.9911 55 44 85 56 43.0089 84.0089 56 44 
95 56 43.0089 97 56 43.0089 98 56 43.0089 
98.9911 56 44 84 57 43.0089 84 56.0089 44 
83.0089 57 44 95 57 43.0089 97 57 43.0089 
98 57 43.0089 98.9911 57 44 84 57.9911 44 
85 58 43.0089 84.0089 58 44 87 58 43.0089 
88 58 43.0089 89 58 43.0089 90 58 43.0089 
91 58 43.0089 95 58 43.0089 97 58 43.0089 
98 58 43.0089 98.9911 58 44 85 59 43.0089 
84.0089 59 44 87 59 43.0089 88 59 43.0089 
89 59 43.0089 90 59 43.0089 91 59 43.0089 
97 59 43.0089 98 59 43.0089 98.9911 59 44 
85 60 43.0089 84.0089 60 44 87 60 43.0089 
88 60 43.0089 89 60 43.0089 90 60 43.0089 
91 60 43.0089 92 60 43.0089 93 60 43.0089 
95 60 43.0089 96 60 43.0089 97 60 43.0089 
98 60 43.0089 98.9911 60 44 85 61 43.0089 
84.0089 61 44 86 61 43.0089 87 61 43.0089 
88 61 43.0089 89 61 43.0089 90 61 43.0089 
91 61 43.0089 92 61 43.0089 93 61 43.0089 
94 61 43.0089 95 61 43.0089 96 61 43.0089 
97 61 43.0089 97.9911 61 44 98 60.9911 44 
85 61.9911 44 86 61.9911 44 87 61.9911 44 
88 61.9911 44 89 61.9911 44 90 61.9911 44 
91 61.9911 44 92 61.9911 44 93 61.9911 44 
94 61.9911 44 95 61.9911 44 96 61.9911 44 
97 61.9911 44 92 46 44.0089 92 45.0089 45 
91.0089 46 45 92.9911 46 45 90 47 44.0089 
90 46.0089 45 89.0089 47 45 91 47 44.0089 
91 46.0089 45 93 47 44.0089 93 46.0089 45 
94 47 44.0089 94 46.0089 45 95 47 44.0089 
95 46.0089 45 95.9911 47 45 87 47.0089 45 
86.0089 48 45 88 47.0089 45 89 47.0089 45 
96 47.0089 45 96.9911 48 45 86 48.0089 45 
85.0089 49 45 96.9911 49 45 85 49.0089 45 
84.0089 50 45 96.9911 50 45 84.0089 51 45 
96.9911 51 45 84.0089 52 45 96.9911 52 45 
84.0089 53 45 96.9911 53 45 84.0089 54 45 
97 53.0089 45 98 54 44.9911 97.9911 54 45 
84.0089 55 45 98 55 44.9911 97.9911 55 45 
84.0089 56 45 98 56 44.9911 97.9911 56 45 
84 57 44.9911 84.0089 57 45 98 57 44.9911 
97.9911 57 45 84 57.0089 45 83.0089 58 45 
84 58 44.0089 98 58 44.9911 97.9911 58 45 
84 59 44.0089 83.0089 59 45 98 58.0089 45 
98.9911 59 45 84 60 44.0089 83.0089 60 45 
98.9911 60 45 84 60.9911 45 84.0089 61 45 
98 61 44.0089 98.9911 61 45 85 61.9911 45 
86 61.9911 45 87 61.9911 45 88 61.9911 45 
89 61.9911 45 90 61.9911 45 91 61.9911 45 
92 61.9911 45 93 61.9911 45 94 61.9911 45 
95 61.9911 45 96 61.9911 45 97 61.9911 45 
98 61.9911 45 92 45 45.0089 92 44.0089 46 
91.0089 45 46 92.9911 45 46 91 46 45.0089 
91 45.0089 46 90.0089 46 46 93 46 45.0089 
93 45.0089 46 94 46 45.0089 94 45.0089 46 
95 46 45.0089 95 45.0089 46 96 46 45.0089 
96 45.0089 46 96.9911 46 46 90 46.0089 46 
89.0089 47 46 96 47 45.0089 96.9911 47 46 
87 47.0089 46 86.0089 48 46 88 47.0089 46 
89 47.0089 46 96.9911 48 46 86 48.0089 46 
85.0089 49 46 96.9911 49 46 85 50 45.9911 
86 49.9911 46 86 50 45.9911 86.0089 50 46 
96.9911 50 46 85 51 45.9911 86 51 45.9911 
86.0089 51 46 96.9911 51 46 85 52 45.9911 
86 52 45.9911 86.0089 52 46 96.9911 52 46 
85 53 45.9911 86 53 45.9911 86.0089 53 46 
96.9911 53 46 85 54 45.9911 86 54 45.9911 
86.0089 54 46 97 54 45.9911 96.9911 54 46 
85 55 45.9911 86 55 45.9911 86.0089 55 46 
97 55 45.9911 96.9911 55 46 85 56 45.9911 
86 56 45.9911 86.0089 56 46 97 56 45.9911 
96.9911 56 46 85 57 45.9911 85.0089 57 46 
86 56.0089 46 97 57 45.9911 96.9911 57 46 
84 58 45.9911 84.0089 58 46 85 57.0089 46 
97 58 45.9911 96.9911 58 46 84 59 45.9911 
84.0089 59 46 97 59 45.9911 96.9911 59 46 
98 59 45.9911 84 60 45.9911 84.0089 60 46 
97 59.0089 46 98 59.0089 46 98.9911 60 46 
84 60.0089 46 83.0089 61 46 84 61 45.0089 
98.9911 61 46 84 61.9911 46 85 62 45.0089 
84.0089 62 46 86 62 45.0089 87 62 45.0089 
88 62 45.0089 89 62 45.0089 90 62 45.0089 
91 62 45.0089 92 62 45.0089 93 62 45.0089 
94 62 45.0089 95 62 45.0089 96 62 45.0089 
97 62 45.0089 98 62 45.0089 98.9911 62 46 
85 63 45.0089 84.0089 63 46 86 63 45.0089 
87 63 45.0089 88 63 45.0089 89 63 45.0089 
90 63 45.0089 91 63 45.0089 92 63 45.0089 
93 63 45.0089 94 63 45.0089 95 63 45.0089 
96 63 45.0089 97 63 45.0089 97.9911 63 46 
[...]
POINT_DATA 1320
SCALARS scalars float
LOOKUP_TABLE default
1 1 1 1 1 1 1 1 1 
1 1 1 1 1 1 1 1 1 
1 1 1 1 1 1 1 1 1 
1 1 1 1 1 1 1 1 1 
1 1 1 1 1 1 1 1 1 
1 1 1 1 1 1 1 1 1 
1 1 1 1 1 1 1 1 1 
1 1 1 1 1 1 1 1 1 
1 1 1 1 1 1 1 1 1 
1 1 1 1 1 1 1 1 1 
1 1 1 1 1 1 1 1 1 
1 1 1 1 1 1 1 1 1 
1 1 1 1 1 1 1 1 1 
1 1 1 1 1 1 1 1 1 
1 1 1 1 1 1 1 1 1 
1 1 1 1 1 1 1 1 1 
1 1 1 1 1 1 1 1 1 
1 1 1 1 1 1 1 1 1 
1 1 1 1 1 1 1 1 1 
1 1 1 1 1 1 1 1 1 
1 1 1 1 1 1 1 1 1 
1 1 1 1 1 1 1 1 1 
1 1 1 1 1 1 1 1 1 
1 1 1 1 1 1 1 1 1 
1 1 1 1 1 1 1 1 1 
1 1 1 1 1 1 1 1 1 
1 1 1 1 1 1 1 1 1 
1 1 1 1 1 1 1 1 1 
1 1 1 1 1 1 1 1 1 
1 1 1 1 1 1 1 1 1 
1 1 1 1 1 1 1 1 1 
1 1 1 1 1 1 1 1 1 
1 1 1 1 1 1 1 1 1 
1 1 1 1 1 1 1 1 1 
1 1 1 1 1 1 1 1 1 
1 1 1 1 1 1 1 1 1 
1 1 1 1 1 1 1 1 1 
1 1 1 1 1 1 1 1 1 
1 1 1 1 1 1 1 1 1 
1 1 1 1 1 1 1 1 1 
1 1 1 1 1 1 1 1 1 
1 1 1 1 1 1 1 1 1 
1 1 1 1 1 1 1 1 1 
1 1 1 1 1 1 1 1 1 
1 1 1 1 1 1 1 1 1 
1 1 1 1 1 1 1 1 1 
1 1 1 1 1 1 1 1 1 
1 1 1 1 1 1 1 1 1 
1 1 1 1 1 1 1 1 1 
1 1 1 1 1 1 1 1 1 
1 1 1 1 1 1 1 1 1 
1 1 1 1 1 1 1 1 1 
1 1 1 1 1 1 1 1 1 
1 1 1 1 1 1 1 1 1 
1 1 1 1 1 1 1 1 1 
1 1 1 1 1 1 1 1 1 
1 1 1 1 1 1 1 1 1 
1 1 1 1 1 1 1 1 1 
1 1 1 1 1 1 1 1 1 
1 1 1 1 1 1 1 1 1 
1 1 1 1 1 1 1 1 1 
1 1 1 1 1 1 1 1 1 
1 1 1 1 1 1 1 1 1 
1 1 1 1 1 1 1 1 1 
1 1 1 1 1 1 1 1 1 
1 1 1 1 1 1 1 1 1 
1 1 1 1 1 1 1 1 1 
1 1 1 1 1 1 1 1 1 
1 1 1 1 1 1 1 1 1 
1 1 1 1 1 1 1 1 1 
1 1 1 1 1 1 1 1 1 
1 1 1 1 1 1 1 1 1 
1 1 1 1 1 1 1 1 1 
1 1 1 1 1 1 1 1 1 
1 1 1 1 1 1 1 1 1 
1 1 1 1 1 1 1 1 1 
1 1 1 1 1 1 1 1 1 
1 1 1 1 1 1 1 1 1 
1 1 1 1 1 1 1 1 1 
1 1 1 1 1 1 1 1 1 
1 1 1 1 1 1 1 1 1 
1 1 1 1 1 1 1 1 1 
1 1 1 1 1 1 1 1 1 
1 1 1 1 1 1 1 1 1 
1 1 1 1 1 1 1 1 1 
1 1 1 1 1 1 1 1 1 
1 1 1 1 1 1 1 1 1 
1 1 1 1 1 1 1 1 1 
1 1 1 1 1 1 1 1 1 
1 1 1 1 1 1 1 1 1 
1 1 1 1 1 1 1 1 1 
1 1 1 1 1 1 1 1 1 
1 1 1 1 1 1 1 1 1 
1 1 1 1 1 1 1 1 1 
1 1 1 1 1 1 1 1 1 
1 1 1 1 1 1 1 1 1 
1 1 1 1 1 1 1 1 1 
1 1 1 1 1 1 1 1 1 
1 1 1 1 1 1 1 1 1 
1 1 1 1 1 1 1 1 1 
1 1 1 1 1 1 1 1 1 
1 1 1 1 1 1 1 1 1 
1 1 1 1 1 1 1 1 1 
1 1 1 1 1 1 1 1 1 
1 1 1 1 1 1 1 1 1 
1 1 1 1 1 1 1 1 1 
1 1 1 1 1 1 1 1 1 
1 1 1 1 1 1 1 1 1 
1 1 1 1 1 1 1 1 1 
1 1 1 1 1 1 1 1 1 
1 1 1 1 1 1 1 1 1 
1 1 1 1 1 1 1 1 1 
1 1 1 1 1 1 1 1 1 
1 1 1 1 1 1 1 1 1 
1 1 1 1 1 1 1 1 1 
1 1 1 1 1 1 1 1 1 
1 1 1 1 1 1 1 1 1 
1 1 1 1 1 1 1 1 1 
1 1 1 1 1 1 1 1 1 
1 1 1 1 1 1 1 1 1 
1 1 1 1 1 1 1 1 1 
1 1 1 1 1 1 1 1 1 
1 1 1 1 1 1 1 1 1 
1 1 1 1 1 1 1 1 1 
1 1 1 1 1 1 1 1 1 
1 1 1 1 1 1 1 1 1 
1 1 1 1 1 1 1 1 1 
1 1 1 1 1 1 1 1 1 
1 1 1 1 1 1 1 1 1 
1 1 1 1 1 1 1 1 1 
1 1 1 1 1 1 1 1 1 
1 1 1 1 1 1 1 1 1 
1 1 1 1 1 1 1 1 1 
1 1 1 1 1 1 1 1 1 
1 1 1 1 1 1 1 1 1 
1 1 1 1 1 1 1 1 1 
1 1 1 1 1 1 1 1 1 
1 1 1 1 1 1 1 1 1 
1 1 1 1 1 1 1 1 1 
1 1 1 1 1 1 1 1 1 
1 1 1 1 1 1 1 1 1 
1 1 1 1 1 1 1 1 1 
1 1 1 1 1 1 1 1 1 
1 1 1 1 1 1 1 1 1 
1 1 1 1 1 1 1 1 1 
1 1 1 1 1 1 1 1 1 
1 1 1 1 1 1 
NORMALS normals float
-0.00884886 -0.00884886 -0.999922 -0.00884886 -0.999922 -0.00884886 -0.999922 -0.00884886 -0.00884886 
0.00884921 0 -0.999961 0.00628521 -0.703943 -0.710228 0.999961 0 -0.00884921 
0 0.00884921 -0.999961 -0.703943 0.00628521 -0.710228 0.573929 0.579053 -0.579053 
0.579053 0.573929 -0.579053 0 0.999961 -0.00884921 0 -0.707107 -0.707107 
0 -0.999961 -0.00884921 -0.703943 -0.710228 -0.00628521 0.99992 -0.00892786 -0.00892786 
-0.707107 -0.707107 0 -0.707107 -0.707107 0 0.580772 -0.575632 -0.575632 
-0.707107 0 -0.707107 -0.710228 -0.703943 -0.00628521 -0.999961 0 -0.00884921 
0.573929 0.579053 -0.579053 0.579053 -0.573929 -0.579053 0.00884921 0 -0.999961 
0.707107 0 -0.707107 -0.00628521 0.703943 -0.710228 0 0.710242 -0.703957 
0 0.707107 -0.707107 0.00628521 0.703943 -0.710228 0 -1 0 
-0.703957 -0.710242 0 0.703957 -0.710242 0 -0.707107 -0.707107 0 
-0.579053 -0.579053 -0.573929 0.703943 -0.710228 -0.00628521 0.573929 -0.579053 -0.579053 
0.00884886 -0.00884886 -0.999922 0.00884886 -0.999922 -0.00884886 0.999922 -0.00884886 -0.00884886 
-0.579053 -0.579053 -0.573929 -0.579053 -0.579053 -0.573929 0.707107 0 -0.707107 
0.999961 0 -0.00884921 -0.00884886 -0.00884886 -0.999922 -0.57735 -0.57735 -0.57735 
-0.707093 -0.00625746 -0.707093 0 0.703957 -0.710242 0 0.703957 -0.710242 
0 0.703957 -0.710242 0 0.703957 -0.710242 0.00884886 0.00884886 -0.999922 
0.999922 0.00884886 -0.00884886 -0.00884886 0.00884886 -0.999922 -0.707093 0.00625746 -0.707093 
0 0.00884921 -0.999961 0 0.00884921 -0.999961 0 0.00884921 -0.999961 
0.00884886 0.00884886 -0.999922 0.707093 0.707093 -0.00625746 0.707093 0.707093 -0.00625746 
-0.00884886 0.999922 -0.00884886 0 0.999961 -0.00884921 0 0.999961 -0.00884921 
0 0.999961 -0.00884921 0.00884886 0.999922 -0.00884886 0 -1 0 
-0.703957 -0.710242 0 0.703957 -0.710242 0 -0.57735 -0.57735 -0.57735 
-0.00884886 -0.999922 -0.00884886 -0.57735 -0.57735 -0.57735 -0.703957 -0.710242 0 
0.703957 -0.710242 0 0.00884921 -0.999961 0 0.999961 -0.00884921 0 
-0.57735 -0.57735 -0.57735 -0.57735 -0.57735 -0.57735 -0.57735 -0.57735 -0.57735 
1 0 0 -0.707093 -0.00625746 -0.707093 -0.57735 -0.57735 -0.57735 
-0.57735 -0.57735 -0.57735 0.999961 0.00884921 0 -0.00884921 0 -0.999961 
-0.579053 -0.573929 -0.579053 -0.999961 0 -0.00884921 -0.703943 0.00628521 -0.710228 
0.579053 0.579053 -0.573929 0.579053 0.579053 -0.573929 -0.00628521 0.703943 -0.710228 
0 0.707107 -0.707107 0 0.710242 -0.703957 0 0.710242 -0.703957 
0 0.710242 -0.703957 0 0.710242 -0.703957 0.00628521 0.710228 -0.703943 
0 -0.710242 -0.703957 -0.575632 -0.580772 -0.575632 0.575632 -0.580772 -0.575632 
-0.57735 -0.57735 -0.57735 -0.00625746 -0.707093 -0.707093 -0.57735 -0.57735 -0.57735 
0 -0.710242 -0.703957 -0.575632 -0.580772 -0.575632 0.575632 -0.580772 -0.575632 
0.00884921 -0.999961 0 0.999961 -0.00884921 0 -0.57735 -0.57735 -0.57735 
-0.57735 -0.57735 -0.57735 -0.57735 -0.57735 -0.57735 1 0 0 
-0.57735 -0.57735 -0.57735 -0.57735 -0.57735 -0.57735 -0.999922 -0.00884886 -0.00884886 
1 0 0 -1 0 0 0.579053 0.573929 -0.579053 
0.999961 0 -0.00884921 -0.00628521 0.703943 -0.710228 -0.999961 0 -0.00884921 
0 0.703957 -0.710242 0 0.703957 -0.710242 0 0.703957 -0.710242 
0 0.703957 -0.710242 0 0.703957 -0.710242 0 0.703957 -0.710242 
0.00884921 0 -0.999961 0.999961 0 -0.00884921 -0.00884886 0.00884886 -0.999922 
-0.999922 0.00884886 -0.00884886 0 0.00884921 -0.999961 0 0.00884921 -0.999961 
0 0.00884921 -0.999961 0 0.00884921 -0.999961 0 0.00884921 -0.999961 
0 0 -1 0.00884921 0 -0.999961 0.999961 0 -0.00884921 
-0.00884886 0.999922 -0.00884886 0 0.707107 -0.707107 0 0.999961 -0.00884921 
0 0.999961 -0.00884921 0 0.999961 -0.00884921 -0.573929 0.579053 -0.579053 
-0.579053 0.573929 -0.579053 -0.00884921 0 -0.999961 0.00884886 0.00884886 -0.999922 
0.999922 0.00884886 -0.00884886 0 0.00884921 -0.999961 -0.99992 0.00892786 -0.00892786 
0.703943 0.710228 -0.00628521 0.707093 0.707093 -0.00625746 0 0.999961 -0.00884921 
0 -0.707107 -0.707107 0 -0.707107 -0.707107 -0.573929 -0.579053 -0.579053 
0.573929 -0.579053 -0.579053 -0.00625746 -0.707093 -0.707093 -0.00625746 -0.707093 -0.707093 
-0.57735 -0.57735 -0.57735 0 -0.707107 -0.707107 0 -0.707107 -0.707107 
-0.573929 -0.579053 -0.579053 -0.573929 -0.579053 -0.579053 0.57735 -0.57735 -0.57735 
0.57735 -0.57735 -0.57735 0.57735 -0.57735 -0.57735 -0.57735 -0.57735 -0.57735 
-0.57735 -0.57735 -0.57735 -0.57735 -0.57735 -0.57735 0.579053 -0.579053 -0.573929 
0.999961 -0.00884921 0 -0.57735 -0.57735 -0.57735 -0.57735 -0.57735 -0.57735 
-0.999922 -0.00884886 -0.00884886 1 0 0 -1 0 0 
1 0 0 -1 0 0 1 0 0 
-1 0 0 1 0 0 -0.999961 0.00884921 0 
1 0 0 -0.579053 0.579053 -0.573929 0 0.707107 -0.707107 
-0.573929 0.579053 -0.579053 0.573929 0.579053 -0.579053 0.575632 0.580772 -0.575632 
0 0.710242 -0.703957 -0.575632 0.580772 -0.575632 -0.57735 0.57735 -0.57735 
-0.57735 0.57735 -0.57735 0.999961 0.00884921 0 0 0.707107 -0.707107 
-0.57735 0.57735 -0.57735 -0.575632 0.580772 -0.575632 0.575632 0.580772 -0.575632 
0.579053 0.579053 -0.573929 0 0.710242 -0.703957 0 -0.707107 -0.707107 
0 -0.999961 -0.00884921 -0.703943 -0.710228 -0.00628521 0.703943 -0.710228 -0.00628521 
-0.00625746 -0.707093 -0.707093 -0.00884886 -0.999922 -0.00884886 -0.57735 -0.57735 -0.57735 
0 -0.707107 -0.707107 0 -0.999961 -0.00884921 -0.573929 -0.579053 -0.579053 
-0.703943 -0.710228 -0.00628521 0.573929 -0.579053 -0.579053 0.703943 -0.710228 -0.00628521 
0.00884886 -0.00884886 -0.999922 0.00884886 -0.999922 -0.00884886 0.999922 -0.00884886 -0.00884886 
-0.57735 -0.57735 -0.57735 -0.57735 -0.57735 -0.57735 -0.57735 -0.57735 -0.57735 
0.579053 -0.573929 -0.579053 0.999961 0 -0.00884921 -0.57735 -0.57735 -0.57735 
-0.57735 -0.57735 -0.57735 -0.707093 -0.00625746 -0.707093 1 0 0 
-0.710242 0 -0.703957 1 0 0 -0.710242 0 -0.703957 
1 0 0 -0.710242 0 -0.703957 1 0 0 
-0.710242 0 -0.703957 1 0 0 -0.710242 0 -0.703957 
1 0 0 -0.579053 0.573929 -0.579053 -0.707107 0 -0.707107 
0.575632 0.575632 -0.580772 0 0.703957 -0.710242 -0.575632 0.575632 -0.580772 
1 0 0 -0.00884886 0.00884886 -0.999922 -0.707093 0.00625746 -0.707093 
0 0.707107 -0.707107 0 0.00884921 -0.999961 0 0.00884921 -0.999961 
0 0.00884921 -0.999961 -0.573929 0.579053 -0.579053 0.579053 0.573929 -0.579053 
0.999961 0 -0.00884921 -0.00884886 0.999922 -0.00884886 0 0.999961 -0.00884921 
0 0.999961 -0.00884921 0 0.999961 -0.00884921 0 0.999961 -0.00884921 
-0.573929 0.579053 -0.579053 -0.00628521 0.703943 -0.710228 -0.579053 0.573929 -0.579053 
0.00884921 0 -0.999961 0.999961 0 -0.00884921 -0.00884886 0.00884886 -0.999922 
-0.707093 0.00625746 -0.707093 0.00884886 0.00884886 -0.999922 0.707093 0.00625746 -0.707093 
-0.00884886 0.999922 -0.00884886 0.00625746 0.707093 -0.707093 0 -1 0 
-0.703957 -0.710242 0 0.703957 -0.710242 0 -0.57735 -0.57735 -0.57735 
-0.00884886 -0.999922 -0.00884886 -0.57735 -0.57735 -0.57735 0 -1 0 
0 -1 0 -0.703957 -0.710242 0 0.703957 -0.710242 0 
0.00884921 -0.999961 0 0.710228 -0.00628521 -0.703943 -0.57735 -0.57735 -0.57735 
-0.57735 -0.57735 -0.57735 -0.57735 -0.57735 -0.57735 0.710242 0 -0.703957 
-0.707093 -0.00625746 -0.707093 -0.57735 -0.57735 -0.57735 -0.707093 -0.00625746 -0.707093 
0.710242 0 -0.703957 -0.707107 0 -0.707107 -0.707107 0 -0.707107 
0.710242 0 -0.703957 -0.707107 0 -0.707107 -0.707107 0 -0.707107 
0.710242 0 -0.703957 -0.707107 0 -0.707107 -0.707107 0 -0.707107 
0.710242 0 -0.703957 -0.707107 0 -0.707107 -0.707107 0 -0.707107 
0.710242 0 -0.703957 -0.707107 0 -0.707107 -0.707107 0 -0.707107 
0.00892822 0 -0.99996 -0.00884886 -0.00884886 -0.999922 -0.00625746 -0.707093 -0.707093 
-0.00884886 -0.00884886 -0.999922 0 0 -1 0 -0.703957 -0.710242 
0.00884921 0 -0.999961 0.00628521 -0.703943 -0.710228 0.999961 0 -0.00884921 
-0.707107 0 -0.707107 -0.579053 -0.573929 -0.579053 0.00892822 0 -0.99996 
0 0 -1 0 0 -1 0.575632 0.575632 -0.580772 
0.575632 0.575632 -0.580772 0.00628521 0.703943 -0.710228 -0.00884921 0 -0.999961 
-0.579053 -0.573929 -0.579053 -0.707107 0 -0.707107 -0.703957 0 -0.710242 
0.00892822 0 -0.99996 0 0 -1 0 0 -1 
0.703957 0 -0.710242 -0.579053 0.573929 -0.579053 -0.575632 0.575632 -0.580772 
0 0 -1 0.575632 0.580772 -0.575632 0.575632 0.575632 -0.580772 
0 0.710242 -0.703957 0 0.710242 -0.703957 0 0.710242 -0.703957 
-0.575632 0.580772 -0.575632 -0.579053 0.573929 -0.579053 -0.579053 0.573929 -0.579053 
0.00631333 -0.707093 -0.707093 0 0 -1 0 -0.703957 -0.710242 
0.703957 0 -0.710242 0 0 -1 -0.703957 0 -0.710242 
0.703957 0 -0.710242 -0.707093 0.00625746 -0.707093 -0.707093 0.00625746 -0.707093 
0 -0.703957 -0.710242 0.703957 0 -0.710242 0.00884886 0.00884886 -0.999922 
0.707093 0.00625746 -0.707093 0 0.00884921 -0.999961 -0.703943 0.00628521 -0.710228 
0.703943 0.00628521 -0.710228 -0.00625746 0.707093 -0.707093 -0.575632 0.580772 -0.575632 
0 0.707107 -0.707107 -0.573929 0.579053 -0.579053 0.573929 0.579053 -0.579053 
0.575632 0.575632 -0.580772 0.00625746 0.707093 -0.707093 0 0.707107 -0.707107 
0 0.707107 -0.707107 0 -0.710242 -0.703957 -0.575632 -0.580772 -0.575632 
0.575632 -0.580772 -0.575632 -0.57735 -0.57735 -0.57735 -0.00884886 -0.999922 -0.00884886 
-0.707093 -0.707093 -0.00625746 0 -1 0 0 -1 0 
0 -0.710242 -0.703957 -0.575632 -0.580772 -0.575632 0.575632 -0.580772 -0.575632 
0 -0.710242 -0.703957 0.703943 -0.00628521 -0.710228 0 -0.707107 -0.707107 
0.00884886 -0.00884886 -0.999922 0.00884886 -0.999922 -0.00884886 0.999922 -0.00884886 -0.00884886 
-0.57735 -0.57735 -0.57735 -0.707093 -0.707093 -0.00625746 -0.707093 -0.707093 -0.00625746 
0.703957 0 -0.710242 0.00884921 0 -0.999961 0.999961 0 -0.00884921 
-0.707093 -0.00625746 -0.707093 -0.707093 -0.707093 -0.00625746 -0.999922 -0.00884886 -0.00884886 
0.703957 0 -0.710242 0.00884921 0 -0.999961 0.999961 0 -0.00884921 
-0.707107 0 -0.707107 -0.999961 0 -0.00884921 0.703957 0 -0.710242 
0.00884921 0 -0.999961 0.999961 0 -0.00884921 -0.707107 0 -0.707107 
-0.999961 0 -0.00884921 0.703957 0 -0.710242 0.00884921 0 -0.999961 
0.999961 0 -0.00884921 -0.707107 0 -0.707107 -0.999961 0 -0.00884921 
0.703957 0 -0.710242 0.00884921 0 -0.999961 0.710228 -0.703943 -0.00628521 
-0.707107 0 -0.707107 -0.999961 0 -0.00884921 0.703957 0 -0.710242 
0 -0.703957 -0.710242 0.703943 -0.710228 -0.00628521 0 -0.707107 -0.707107 
0.00628521 -0.710228 -0.703943 0.00884921 -0.999961 0 0.999961 -0.00884921 0 
-0.707107 0 -0.707107 -0.999961 0 -0.00884921 0 0 -1 
0.999961 0 0.00884921 -0.579053 -0.573929 -0.579053 -0.710228 -0.703943 -0.00628521 
0 0 -1 0.575632 0.575632 -0.580772 0.00631333 0.707093 -0.707093 
1 0 0 -0.710242 0 -0.703957 -0.710242 -0.703957 0 
-1 0 0 0 0 -1 0.703957 0 -0.710242 
0.00892822 0 -0.99996 1 0 0 -0.580772 0.575632 -0.575632 
-0.579053 0.573929 -0.579053 -0.579053 0.573929 -0.579053 0.575632 0.575632 -0.580772 
0 0.703957 -0.710242 0 0.703957 -0.710242 0 0.703957 -0.710242 
-0.575632 0.575632 -0.580772 0 -0.703957 -0.710242 0.703957 0 -0.710242 
0.00892822 0 -0.99996 1 0 0 -0.707107 0 -0.707107 
-0.707107 0 -0.707107 0.703957 0 -0.710242 0 0 -1 
0 0 -1 0 0 -1 -0.703957 0 -0.710242 
0.703957 0 -0.710242 0.00884921 0 -0.999961 0.999961 0 -0.00884921 
-0.707107 0 -0.707107 -0.707107 0 -0.707107 0.703957 0 -0.710242 
0 0 -1 0 0 -1 0 0 -1 
0 0 -1 0 0.703957 -0.710242 -0.575632 0.575632 -0.580772 
0.575632 0.575632 -0.580772 0 0.703957 -0.710242 0 0 -1 
0.00884886 0.00884886 -0.999922 0.999922 0.00884886 -0.00884886 -0.00884886 0.00884886 -0.999922 
-0.999922 0.00884886 -0.00884886 0 0.707107 -0.707107 0 0.00884921 -0.999961 
0 0.00884921 -0.999961 0 0.00884921 -0.999961 0 0.00884921 -0.999961 
0 0.00884921 -0.999961 0 0.00884921 -0.999961 0 0.00884921 -0.999961 
0 0.707107 -0.707107 0 0.00884921 -0.999961 0 0.00884921 -0.999961 
0.00884886 0.00884886 -0.999922 0.57735 0.57735 -0.57735 0.57735 0.57735 -0.57735 
-0.00884886 0.999922 -0.00884886 0 0.999961 -0.00884921 0 0.999961 -0.00884921 
0 0.999961 -0.00884921 0 0.999961 -0.00884921 0 0.999961 -0.00884921 
0 0.999961 -0.00884921 0 0.999961 -0.00884921 0 0.999961 -0.00884921 
0 0.999961 -0.00884921 0 0.999961 -0.00884921 0 0.999961 -0.00884921 
0.00884886 0.999922 -0.00884886 0 -0.707107 -0.707107 0 -0.707107 -0.707107 
-0.573929 -0.579053 -0.579053 0.573929 -0.579053 -0.579053 -0.00625746 -0.707093 -0.707093 
-0.00884886 -0.999922 -0.00884886 -0.707093 -0.707093 -0.00625746 -0.573929 -0.579053 -0.579053 
-0.573929 -0.579053 -0.579053 0.573929 -0.579053 -0.579053 0.573929 -0.579053 -0.579053 
0 -0.707107 -0.707107 0 -0.707107 -0.707107 0.00625746 -0.707093 -0.707093 
0.00625746 -0.707093 -0.707093 0.57735 -0.57735 -0.57735 -0.00884921 -0.999961 0 
-0.707107 -0.707107 0 0 -1 0 -0.703957 -0.710242 0 
0.579053 -0.579053 -0.573929 0.999961 -0.00884921 0 -0.707107 -0.707107 0 
-0.707107 -0.707107 0 1 0 0 -0.707093 -0.707093 0.00625746 
-0.999922 -0.00884886 0.00884886 1 0 0 -0.999961 0 0.00884921 
1 0 0 -0.999961 0 0.00884921 1 0 0 
-0.999961 0 0.00884921 0.710242 -0.703957 0 -0.999961 0 0.00884921 
0.707093 -0.707093 0.00625746 0.710228 -0.00628521 0.703943 0.707093 -0.00625746 0.707093 
-0.999961 0 0.00884921 0.707107 0 0.707107 0.707107 0 0.707107 
-0.999961 0 0.00884921 0.710242 0 0.703957 0.707107 0 0.707107 
-0.580772 -0.575632 0.575632 -0.579053 -0.573929 0.579053 0.710242 0 0.703957 
0.707107 0 0.707107 -0.579053 -0.579053 0.573929 -0.999961 -0.00884921 0 
-0.58249 0.57218 -0.577335 0.580772 -0.575632 0.575632 0.579053 -0.573929 0.579053 
-0.710242 0 -0.703957 -1 0 0 0.57735 -0.57735 0.57735 
0.999922 -0.00884886 0.00884886 -0.710228 0.00628521 -0.703943 -0.999961 0.00884921 0 
1 0 0 -0.579053 0.579053 -0.573929 -0.579053 0.579053 -0.573929 
0.57735 0.57735 -0.57735 0.999922 0.00884886 -0.00884886 -0.00628521 0.710228 -0.703943 
0 0.710242 -0.703957 0 0.710242 -0.703957 0 0.710242 -0.703957 
0 0.710242 -0.703957 0 0.710242 -0.703957 0 0.710242 -0.703957 
0 0.710242 -0.703957 0 0.710242 -0.703957 0 0.710242 -0.703957 
0 0.710242 -0.703957 0 0.710242 -0.703957 0 0.710242 -0.703957 
0.00625746 0.707093 -0.707093 0 -0.707107 -0.707107 0 -0.999961 -0.00884921 
-0.703943 -0.710228 -0.00628521 0.573929 -0.579053 -0.579053 -0.57735 -0.57735 -0.57735 
-0.707093 -0.707093 -0.00625746 -0.57735 -0.57735 -0.57735 0.573929 -0.579053 -0.579053 
0.573929 -0.579053 -0.579053 0 -0.707107 -0.707107 0 -0.707107 -0.707107 
0 -0.707107 -0.707107 0 -0.999961 -0.00884921 0.00892786 -0.00892786 -0.99992 
0.00884921 -0.999961 0 0.999961 -0.00884921 0 -0.579053 -0.579053 -0.573929 
-0.579053 -0.579053 -0.573929 0.580772 -0.575632 -0.575632 1 0 0 
-0.00884921 -0.999961 0 -0.707107 -0.707107 0 0 -0.710242 -0.703957 
-0.575632 -0.580772 -0.575632 1 0 0 -0.710242 -0.703957 0 
-1 0 0 1 0 0 -0.00884886 -0.00884886 0.999922 
-0.580772 0.575632 0.575632 -0.575632 0.575632 0.580772 -0.580772 0.575632 0.575632 
1 0 0 -0.00884921 0 0.999961 -0.703957 0 0.710242 
-0.710242 0 0.703957 1 0 0 -0.00884921 0 0.999961 
-0.703957 0 0.710242 -0.710242 0 0.703957 1 0 0 
-0.00884921 0 0.999961 -0.703957 0 0.710242 -0.710242 0 0.703957 
1 0 0 -0.00884921 0 0.999961 -0.703957 0 0.710242 
-0.710242 0 0.703957 0.707093 -0.00625746 0.707093 0.710242 0 0.703957 
-0.00884921 0 0.999961 -0.703957 0 0.710242 -0.710242 0 0.703957 
0.707107 0 0.707107 0.707107 0 0.707107 -0.00884921 0 0.999961 
-0.575632 -0.575632 0.580772 -0.580772 -0.575632 0.575632 0.707107 0 0.707107 
0.707107 0 0.707107 -0.579053 -0.573929 0.579053 -0.579053 -0.579053 0.573929 
-0.579053 -0.579053 0.573929 0.707107 0 0.707107 0.707107 0 0.707107 
-0.710228 -0.00628521 0.703943 -0.710228 -0.00628521 0.703943 -0.579053 -0.579053 0.573929 
0.707107 0 0.707107 0.707107 0 0.707107 -0.710242 0 0.703957 
-0.710242 0 0.703957 0.575632 -0.575632 0.580772 0.580772 -0.575632 0.575632 
0.00625746 -0.707093 0.707093 -0.58249 -0.57218 0.577335 -0.580772 -0.575632 0.575632 
0.575632 -0.580772 0.575632 0.00625746 -0.707093 0.707093 0.999922 -0.00884886 0.00884886 
-0.580772 -0.575632 0.575632 -1 0 0 -0.580772 0.575632 -0.575632 
0.999961 0 0.00884921 -0.710242 0.703957 0 -0.00628521 0.703943 -0.710228 
-0.710228 0.703943 -0.00628521 0 0.703957 -0.710242 0 0.703957 -0.710242 
0 0.703957 -0.710242 0 0.703957 -0.710242 0 0.703957 -0.710242 
0 0.703957 -0.710242 0 0.703957 -0.710242 0 0.703957 -0.710242 
0 0.703957 -0.710242 0 0.703957 -0.710242 0 0.703957 -0.710242 
0 0.703957 -0.710242 0.00628521 0.710228 -0.703943 0.999961 0.00884921 0 
-0.00892786 0.00892786 -0.99992 -0.999961 0.00884921 0 0 0.00892822 -0.99996 
0 0 -1 0 0 -1 0 0 -1 
0 0 -1 0 0 -1 0 0 -1 
0 0 -1 0 0 -1 0 0 -1 
0 0 -1 0.00892786 0.00892786 -0.99992 0.707107 0.707107 0 
0.707107 0.707107 0 -0.00884921 0.999961 0 -0.703957 0.710242 0 
-0.710228 0.703943 -0.00628521 -0.00884921 0 -0.999961 0 0 -1 
0 0 -1 0 0 -1 0 0 -1 
0 0 -1 0 0 -1 0 0 -1 
0 0 -1 0.00884886 0.00884886 -0.999922 0.707093 0.707093 -0.00625746 
0.707107 0.707107 0 -0.00892786 0.00892786 -0.99992 -0.999961 0.00884921 0 
0 0.00892822 -0.99996 0 0.00892822 -0.99996 0 0.00892822 -0.99996 
0 0.00892822 -0.99996 0 0.00892822 -0.99996 0 0.00892822 -0.99996 
0 0.00892822 -0.99996 0.00892786 0.00892786 -0.99992 0.707107 0.707107 0 
0.707093 0.707093 -0.00625746 -0.00884921 0.999961 0 0 1 0 