# vtk DataFile Version 3.0
vtk output
ASCII
DATASET POLYDATA
POINTS 7528 float
98 43 118.017 98 42.0167 119 97.0167 43 119 
99 43 118.017 99 42.0167 119 100 43 118.017 
100 42.0167 119 100.983 43 119 98 43.9833 119 
99 43.9833 119 99.0167 44 119 100 44 118.017 
100.983 44 119 114 44 118.017 114 43.0167 119 
113.017 44 119 114.983 44 119 100 44.9833 119 
114 45 118.017 113.017 45 119 114.983 45 119 
114 46 118.017 113.017 46 119 114.983 46 119 
112 47 118.017 112 46.0167 119 111.017 47 119 
113 47 118.017 113 46.0167 119 114 47 118.017 
114.983 47 119 112 48 118.017 111.017 48 119 
112.983 48 119 113 47.9833 119 114 47.9833 119 
109 49 118.017 109 48.0167 119 108.017 49 119 
110 49 118.017 110 48.0167 119 110.983 49 119 
112 49 118.017 111.017 49 119 112.983 49 119 
109 49.9833 119 109.017 50 119 110 50 118.017 
110.983 50 119 112 50 118.017 111.017 50 119 
112.983 50 119 110 51 118.017 109.017 51 119 
111 50.0167 119 111 51 118.017 112 51 118.017 
112.983 51 119 110 52 118.017 109.017 52 119 
110.983 52 119 111 51.9833 119 112 51.9833 119 
110 53 118.017 109.017 53 119 110.983 53 119 
110 54 118.017 109.017 54 119 110.983 54 119 
110 55 118.017 109.017 55 119 110.983 55 119 
120 55 118.017 120 54.0167 119 119.017 55 119 
121 55 118.017 121 54.0167 119 122 55 118.017 
122 54.0167 119 122.983 55 119 110 56 118.017 
109.017 56 119 110.983 56 119 120 56 118.017 
119.017 56 119 120.983 56 119 121 55.9833 119 
122 55.9833 119 109 57 118.017 109 56.0167 119 
108.017 57 119 110 57 118.017 110.983 57 119 
120 56.9833 119 108 58 118.017 108 57.0167 119 
107.017 58 119 109 57.9833 119 108.983 58 119 
110 57.9833 119 108 59 118.017 107.017 59 119 
108.983 59 119 108 60 118.017 107.017 60 119 
108.983 60 119 108 61 118.017 107.017 61 119 
108.983 61 119 108 62 118.017 107.017 62 119 
108.983 62 119 108 63 118.017 107.017 63 119 
108.983 63 119 108 63.9833 119 113 67 118.017 
113 66.0167 119 112.017 67 119 113.983 67 119 
113 67.9833 119 114 67.0167 119 113.017 68 119 
114 68 118.017 114.983 68 119 114 69 118.017 
113.017 69 119 115 68.0167 119 115 69 118.017 
116 69 118.017 116 68.0167 119 116.983 69 119 
114 69.9833 119 115 69.9833 119 115.017 70 119 
116 70 118.017 116.983 70 119 116 71 118.017 
115.017 71 119 116.983 71 119 116 72 118.017 
115.017 72 119 116.983 72 119 116 72.9833 119 
117 72.0167 119 116.017 73 119 117 73 118.017 
117.983 73 119 117 73.9833 119 99 42 119.017 
99 41.0167 120 98.0167 42 120 100 42 119.017 
100 41.0167 120 101 42 119.017 101 41.0167 120 
102 42 119.017 102 41.0167 120 103 42 119.017 
103 41.0167 120 104 42 119.017 104 41.0167 120 
105 42 119.017 105 41.0167 120 106 42 119.017 
106 41.0167 120 107 42 119.017 107 41.0167 120 
108 42 119.017 108 41.0167 120 108.983 42 120 
98 42.0167 120 97.0167 43 120 101 43 119.017 
102 43 119.017 103 43 119.017 104 43 119.017 
105 43 119.017 106 43 119.017 107 43 119.017 
108 43 119.017 108.983 43 120 116 43 119.017 
116 42.0167 120 115.017 43 120 116.983 43 120 
97 44 119.017 97 43.0167 120 96.0167 44 120 
98 44 119.017 99 44 119.017 101 44 119.017 
102 44 119.017 103 44 119.017 104 44 119.017 
105 44 119.017 106 44 119.017 107 44 119.017 
108 44 119.017 109 43.0167 120 109 44 119.017 
110 44 119.017 110 43.0167 120 111 44 119.017 
111 43.0167 120 112 44 119.017 112 43.0167 120 
113 44 119.017 113 43.0167 120 114 43.0167 120 
115 44 119.017 115 43.0167 120 116 44 119.017 
117 43.0167 120 117 44 119.017 118 44 119.017 
118 43.0167 120 119 44 119.017 119 43.0167 120 
120 44 119.017 120 43.0167 120 120.983 44 120 
97 45 119.017 96.0167 45 120 98 45 119.017 
99 45 119.017 100 45 119.017 101 45 119.017 
102 45 119.017 103 45 119.017 104 45 119.017 
105 45 119.017 106 45 119.017 107 45 119.017 
108 45 119.017 109 45 119.017 110 45 119.017 
111 45 119.017 112 45 119.017 113 45 119.017 
115 45 119.017 116 45 119.017 117 45 119.017 
118 45 119.017 119 45 119.017 120 45 119.017 
120.983 45 120 122 45 119.017 122 44.0167 120 
121.017 45 120 122.983 45 120 97 45.9833 120 
98 45.9833 120 99 45.9833 120 100 45.9833 120 
101 45.9833 120 102 45.9833 120 103 45.9833 120 
104 45.9833 120 104.017 46 120 105 46 119.017 
106 46 119.017 107 46 119.017 108 46 119.017 
109 46 119.017 110 46 119.017 111 46 119.017 
112 46 119.017 113 46 119.017 115 46 119.017 
116 46 119.017 117 46 119.017 118 46 119.017 
119 46 119.017 120 46 119.017 121 45.0167 120 
121 46 119.017 122 46 119.017 123 45.0167 120 
123 46 119.017 124 46 119.017 124 45.0167 120 
124.983 46 120 105 47 119.017 104.017 47 120 
106 47 119.017 107 47 119.017 108 47 119.017 
109 47 119.017 110 47 119.017 111 47 119.017 
115 47 119.017 116 47 119.017 117 47 119.017 
118 47 119.017 119 47 119.017 120 47 119.017 
121 47 119.017 122 47 119.017 123 47 119.017 
124 47 119.017 124.983 47 120 105 47.9833 120 
106 47.9833 120 107 47.9833 120 108 47.9833 120 
108.017 48 120 109 48 119.017 110 48 119.017 
111 48 119.017 113 48 119.017 114 48 119.017 
115 48 119.017 116 48 119.017 117 48 119.017 
118 48 119.017 119 48 119.017 120 48 119.017 
121 48 119.017 122 48 119.017 123 48 119.017 
124 48 119.017 125 47.0167 120 125 48 119.017 
126 48 119.017 126 47.0167 120 126.983 48 120 
108.017 49 120 111 49 119.017 113 49 119.017 
114 49 119.017 115 49 119.017 116 49 119.017 
117 49 119.017 118 49 119.017 119 49 119.017 
120 49 119.017 121 49 119.017 122 49 119.017 
123 49 119.017 124 49 119.017 125 49 119.017 
126 49 119.017 126.983 49 120 109 50 119.017 
108.017 50 120 111 50 119.017 113 50 119.017 
114 50 119.017 115 50 119.017 116 50 119.017 
117 50 119.017 118 50 119.017 119 50 119.017 
120 50 119.017 121 50 119.017 122 50 119.017 
123 50 119.017 124 50 119.017 125 50 119.017 
126 50 119.017 126.983 50 120 109 51 119.017 
108.017 51 120 113 51 119.017 114 51 119.017 
115 51 119.017 116 51 119.017 117 51 119.017 
118 51 119.017 119 51 119.017 120 51 119.017 
121 51 119.017 122 51 119.017 123 51 119.017 
124 51 119.017 125 51 119.017 125.983 51 120 
126 50.9833 120 109 52 119.017 108.017 52 120 
111 52 119.017 112 52 119.017 113 52 119.017 
114 52 119.017 115 52 119.017 116 52 119.017 
117 52 119.017 118 52 119.017 119 52 119.017 
120 52 119.017 121 52 119.017 122 52 119.017 
123 52 119.017 124 52 119.017 124.983 52 120 
125 51.9833 120 109 53 119.017 108.017 53 120 
111 53 119.017 112 53 119.017 113 53 119.017 
114 53 119.017 115 53 119.017 116 53 119.017 
117 53 119.017 118 53 119.017 119 53 119.017 
120 53 119.017 121 53 119.017 122 53 119.017 
123 53 119.017 124 53 119.017 124.983 53 120 
109 54 119.017 108.017 54 120 111 54 119.017 
112 54 119.017 113 54 119.017 114 54 119.017 
115 54 119.017 116 54 119.017 117 54 119.017 
118 54 119.017 119 54 119.017 120 54 119.017 
121 54 119.017 122 54 119.017 123 54 119.017 
124 54 119.017 124.983 54 120 109 55 119.017 
108.017 55 120 111 55 119.017 112 55 119.017 
113 55 119.017 114 55 119.017 115 55 119.017 
116 55 119.017 117 55 119.017 118 55 119.017 
119 55 119.017 123 55 119.017 123.983 55 120 
124 54.9833 120 109 56 119.017 108.017 56 120 
111 56 119.017 112 56 119.017 113 56 119.017 
114 56 119.017 115 56 119.017 116 56 119.017 
117 56 119.017 118 56 119.017 119 56 119.017 
121 56 119.017 122 56 119.017 122.983 56 120 
123 55.9833 120 108 57 119.017 108 56.0167 120 
107.017 57 120 111 57 119.017 112 57 119.017 
113 57 119.017 114 57 119.017 115 57 119.017 
116 57 119.017 117 57 119.017 118 57 119.017 
119 57 119.017 120 57 119.017 121 57 119.017 
121.983 57 120 122 56.9833 120 107 58 119.017 
107 57.0167 120 106.017 58 120 109 58 119.017 
110 58 119.017 111 58 119.017 112 58 119.017 
113 58 119.017 114 58 119.017 115 58 119.017 
116 58 119.017 116.983 58 120 117 57.9833 120 
118 57.9833 120 119 57.9833 120 120 57.9833 120 
121 57.9833 120 107 59 119.017 106.017 59 120 
109 59 119.017 110 59 119.017 111 59 119.017 
112 59 119.017 113 59 119.017 114 59 119.017 
115 59 119.017 115.983 59 120 116 58.9833 120 
107 60 119.017 106.017 60 120 109 60 119.017 
110 60 119.017 111 60 119.017 112 60 119.017 
113 60 119.017 114 60 119.017 114.983 60 120 
115 59.9833 120 107 61 119.017 106.017 61 120 
109 61 119.017 110 61 119.017 111 61 119.017 
112 61 119.017 113 61 119.017 113.983 61 120 
114 60.9833 120 107 62 119.017 106.017 62 120 
109 62 119.017 110 62 119.017 110.983 62 120 
111 61.9833 120 112 61.9833 120 113 61.9833 120 
107 63 119.017 106.017 63 120 109 63 119.017 
109.983 63 120 110 62.9833 120 107 64 119.017 
106.017 64 120 108 64 119.017 108.983 64 120 
109 63.9833 120 107 65 119.017 106.017 65 120 
107.983 65 120 108 64.9833 120 107 65.9833 120 
113 66 119.017 113 65.0167 120 112.017 66 120 
114 66 119.017 114 65.0167 120 114.983 66 120 
112.017 67 120 114 67 119.017 114.983 67 120 
113 68 119.017 112.017 68 120 115 68 119.017 
115 67.0167 120 116 68 119.017 116 67.0167 120 
117 68 119.017 117 67.0167 120 118 68 119.017 
118 67.0167 120 118.983 68 120 113 69 119.017 
112.017 69 120 117 69 119.017 118 69 119.017 
118.983 69 120 113 70 119.017 112.017 70 120 
114 70 119.017 115 70 119.017 117 70 119.017 
118 70 119.017 119 69.0167 120 119 70 119.017 
120 70 119.017 120 69.0167 120 121 70 119.017 
121 69.0167 120 122 70 119.017 122 69.0167 120 
122.983 70 120 113 71 119.017 112.017 71 120 
114 71 119.017 115 71 119.017 117 71 119.017 
118 71 119.017 119 71 119.017 120 71 119.017 
121 71 119.017 121.983 71 120 122 70.9833 120 
113 71.9833 120 114 71.9833 120 114.017 72 120 
115 72 119.017 117 72 119.017 118 72 119.017 
118.983 72 120 119 71.9833 120 120 71.9833 120 
121 71.9833 120 115 73 119.017 114.017 73 120 
116 73 119.017 118 73 119.017 118.983 73 120 
115 73.9833 120 116 73.9833 120 117 74 119.017 
116.017 74 120 118 74 119.017 118.983 74 120 
117 75 119.017 116.017 75 120 118 75 119.017 
118.983 75 120 117 76 119.017 116.017 76 120 
118 76 119.017 119 75.0167 120 119 76 119.017 
120 76 119.017 120 75.0167 120 120.983 76 120 
117 77 119.017 116.017 77 120 118 77 119.017 
119 77 119.017 120 77 119.017 120.983 77 120 
117 77.9833 120 118 77.9833 120 118.017 78 120 
[...]
POINT_DATA 7528
SCALARS scalars float
LOOKUP_TABLE default
1 1 1 1 1 1 1 1 1 
1 1 1 1 1 1 1 1 1 
1 1 1 1 1 1 1 1 1 
1 1 1 1 1 1 1 1 1 
1 1 1 1 1 1 1 1 1 
1 1 1 1 1 1 1 1 1 
1 1 1 1 1 1 1 1 1 
1 1 1 1 1 1 1 1 1 
1 1 1 1 1 1 1 1 1 
1 1 1 1 1 1 1 1 1 
1 1 1 1 1 1 1 1 1 
1 1 1 1 1 1 1 1 1 
1 1 1 1 1 1 1 1 1 
1 1 1 1 1 1 1 1 1 
1 1 1 1 1 1 1 1 1 
1 1 1 1 1 1 1 1 1 
1 1 1 1 1 1 1 1 1 
1 1 1 1 1 1 1 1 1 
1 1 1 1 1 1 1 1 1 
1 1 1 1 1 1 1 1 1 
1 1 1 1 1 1 1 1 1 
1 1 1 1 1 1 1 1 1 
1 1 1 1 1 1 1 1 1 
1 1 1 1 1 1 1 1 1 
1 1 1 1 1 1 1 1 1 
1 1 1 1 1 1 1 1 1 
1 1 1 1 1 1 1 1 1 
1 1 1 1 1 1 1 1 1 
1 1 1 1 1 1 1 1 1 
1 1 1 1 1 1 1 1 1 
1 1 1 1 1 1 1 1 1 
1 1 1 1 1 1 1 1 1 
1 1 1 1 1 1 1 1 1 
1 1 1 1 1 1 1 1 1 
1 1 1 1 1 1 1 1 1 
1 1 1 1 1 1 1 1 1 
1 1 1 1 1 1 1 1 1 
1 1 1 1 1 1 1 1 1 
1 1 1 1 1 1 1 1 1 
1 1 1 1 1 1 1 1 1 
1 1 1 1 1 1 1 1 1 
1 1 1 1 1 1 1 1 1 
1 1 1 1 1 1 1 1 1 
1 1 1 1 1 1 1 1 1 
1 1 1 1 1 1 1 1 1 
1 1 1 1 1 1 1 1 1 
1 1 1 1 1 1 1 1 1 
1 1 1 1 1 1 1 1 1 
1 1 1 1 1 1 1 1 1 
1 1 1 1 1 1 1 1 1 
1 1 1 1 1 1 1 1 1 
1 1 1 1 1 1 1 1 1 
1 1 1 1 1 1 1 1 1 
1 1 1 1 1 1 1 1 1 
1 1 1 1 1 1 1 1 1 
1 1 1 1 1 1 1 1 1 
1 1 1 1 1 1 1 1 1 
1 1 1 1 1 1 1 1 1 
1 1 1 1 1 1 1 1 1 
1 1 1 1 1 1 1 1 1 
1 1 1 1 1 1 1 1 1 
1 1 1 1 1 1 1 1 1 
1 1 1 1 1 1 1 1 1 
1 1 1 1 1 1 1 1 1 
1 1 1 1 1 1 1 1 1 
1 1 1 1 1 1 1 1 1 
1 1 1 1 1 1 1 1 1 
1 1 1 1 1 1 1 1 1 
1 1 1 1 1 1 1 1 1 
1 1 1 1 1 1 1 1 1 
1 1 1 1 1 1 1 1 1 
1 1 1 1 1 1 1 1 1 
1 1 1 1 1 1 1 1 1 
1 1 1 1 1 1 1 1 1 
1 1 1 1 1 1 1 1 1 
1 1 1 1 1 1 1 1 1 
1 1 1 1 1 1 1 1 1 
1 1 1 1 1 1 1 1 1 
1 1 1 1 1 1 1 1 1 
1 1 1 1 1 1 1 1 1 
1 1 1 1 1 1 1 1 1 
1 1 1 1 1 1 1 1 1 
1 1 1 1 1 1 1 1 1 
1 1 1 1 1 1 1 1 1 
1 1 1 1 1 1 1 1 1 
1 1 1 1 1 1 1 1 1 
1 1 1 1 1 1 1 1 1 
1 1 1 1 1 1 1 1 1 
1 1 1 1 1 1 1 1 1 
1 1 1 1 1 1 1 1 1 
1 1 1 1 1 1 1 1 1 
1 1 1 1 1 1 1 1 1 
1 1 1 1 1 1 1 1 1 
1 1 1 1 1 1 1 1 1 
1 1 1 1 1 1 1 1 1 
1 1 1 1 1 1 1 1 1 
1 1 1 1 1 1 1 1 1 
1 1 1 1 1 1 1 1 1 
1 1 1 1 1 1 1 1 1 
1 1 1 1 1 1 1 1 1 
1 1 1 1 1 1 1 1 1 
1 1 1 1 1 1 1 1 1 
1 1 1 1 1 1 1 1 1 
1 1 1 1 1 1 1 1 1 
1 1 1 1 1 1 1 1 1 
1 1 1 1 1 1 1 1 1 
1 1 1 1 1 1 1 1 1 
1 1 1 1 1 1 1 1 1 
1 1 1 1 1 1 1 1 1 
1 1 1 1 1 1 1 1 1 
1 1 1 1 1 1 1 1 1 
1 1 1 1 1 1 1 1 1 
1 1 1 1 1 1 1 1 1 
1 1 1 1 1 1 1 1 1 
1 1 1 1 1 1 1 1 1 
1 1 1 1 1 1 1 1 1 
1 1 1 1 1 1 1 1 1 
1 1 1 1 1 1 1 1 1 
1 1 1 1 1 1 1 1 1 
1 1 1 1 1 1 1 1 1 
1 1 1 1 1 1 1 1 1 
1 1 1 1 1 1 1 1 1 
1 1 1 1 1 1 1 1 1 
1 1 1 1 1 1 1 1 1 
1 1 1 1 1 1 1 1 1 
1 1 1 1 1 1 1 1 1 
1 1 1 1 1 1 1 1 1 
1 1 1 1 1 1 1 1 1 
1 1 1 1 1 1 1 1 1 
1 1 1 1 1 1 1 1 1 
1 1 1 1 1 1 1 1 1 
1 1 1 1 1 1 1 1 1 
1 1 1 1 1 1 1 1 1 
1 1 1 1 1 1 1 1 1 
1 1 1 1 1 1 1 1 1 
1 1 1 1 1 1 1 1 1 
1 1 1 1 1 1 1 1 1 
1 1 1 1 1 1 1 1 1 
1 1 1 1 1 1 1 1 1 
1 1 1 1 1 1 1 1 1 
1 1 1 1 1 1 1 1 1 
1 1 1 1 1 1 1 1 1 
1 1 1 1 1 1 1 1 1 
1 1 1 1 1 1 1 1 1 
1 1 1 1 1 1 1 1 1 
1 1 1 1 1 1 1 1 1 
1 1 1 1 1 1 1 1 1 
1 1 1 1 1 1 1 1 1 
1 1 1 1 1 1 1 1 1 
1 1 1 1 1 1 1 1 1 
1 1 1 1 1 1 1 1 1 
1 1 1 1 1 1 1 1 1 
1 1 1 1 1 1 1 1 1 
1 1 1 1 1 1 1 1 1 
1 1 1 1 1 1 1 1 1 
1 1 1 1 1 1 1 1 1 
1 1 1 1 1 1 1 1 1 
1 1 1 1 1 1 1 1 1 
1 1 1 1 1 1 1 1 1 
1 1 1 1 1 1 1 1 1 
1 1 1 1 1 1 1 1 1 
1 1 1 1 1 1 1 1 1 
1 1 1 1 1 1 1 1 1 
1 1 1 1 1 1 1 1 1 
1 1 1 1 1 1 1 1 1 
1 1 1 1 1 1 1 1 1 
1 1 1 1 1 1 1 1 1 
1 1 1 1 1 1 1 1 1 
1 1 1 1 1 1 1 1 1 
1 1 1 1 1 1 1 1 1 
1 1 1 1 1 1 1 1 1 
1 1 1 1 1 1 1 1 1 
1 1 1 1 1 1 1 1 1 
1 1 1 1 1 1 1 1 1 
1 1 1 1 1 1 1 1 1 
1 1 1 1 1 1 1 1 1 
1 1 1 1 1 1 1 1 1 
1 1 1 1 1 1 1 1 1 
1 1 1 1 1 1 1 1 1 
1 1 1 1 1 1 1 1 1 
1 1 1 1 1 1 1 1 1 
1 1 1 1 1 1 1 1 1 
1 1 1 1 1 1 1 1 1 
1 1 1 1 1 1 1 1 1 
1 1 1 1 1 1 1 1 1 
1 1 1 1 1 1 1 1 1 
1 1 1 1 1 1 1 1 1 
1 1 1 1 1 1 1 1 1 
1 1 1 1 1 1 1 1 1 
1 1 1 1 1 1 1 1 1 
1 1 1 1 1 1 1 1 1 
1 1 1 1 1 1 1 1 1 
1 1 1 1 1 1 1 1 1 
1 1 1 1 1 1 1 1 1 
1 1 1 1 1 1 1 1 1 
1 1 1 1 1 1 1 1 1 
1 1 1 1 1 1 1 1 1 
1 1 1 1 1 1 1 1 1 
1 1 1 1 1 1 1 1 1 
1 1 1 1 1 1 1 1 1 
1 1 1 1 1 1 1 1 1 
1 1 1 1 1 1 1 1 1 
1 1 1 1 1 1 1 1 1 
1 1 1 1 1 1 1 1 1 
1 1 1 1 1 1 1 1 1 
1 1 1 1 1 1 1 1 1 
1 1 1 1 1 1 1 1 1 
1 1 1 1 1 1 1 1 1 
1 1 1 1 1 1 1 1 1 
1 1 1 1 1 1 1 1 1 
1 1 1 1 1 1 1 1 1 
1 1 1 1 1 1 1 1 1 
1 1 1 1 1 1 1 1 1 
1 1 1 1 1 1 1 1 1 
1 1 1 1 1 1 1 1 1 
1 1 1 1 1 1 1 1 1 
1 1 1 1 1 1 1 1 1 
1 1 1 1 1 1 1 1 1 
1 1 1 1 1 1 1 1 1 
1 1 1 1 1 1 1 1 1 
1 1 1 1 1 1 1 1 1 
1 1 1 1 1 1 1 1 1 
1 1 1 1 1 1 1 1 1 
1 1 1 1 1 1 1 1 1 
1 1 1 1 1 1 1 1 1 
1 1 1 1 1 1 1 1 1 
1 1 1 1 1 1 1 1 1 
1 1 1 1 1 1 1 1 1 
1 1 1 1 1 1 1 1 1 
1 1 1 1 1 1 1 1 1 
1 1 1 1 1 1 1 1 1 
1 1 1 1 1 1 1 1 1 
1 1 1 1 1 1 1 1 1 
1 1 1 1 1 1 1 1 1 
1 1 1 1 1 1 1 1 1 
1 1 1 1 1 1 1 1 1 
1 1 1 1 1 1 1 1 1 
1 1 1 1 1 1 1 1 1 
1 1 1 1 1 1 1 1 1 
1 1 1 1 1 1 1 1 1 
1 1 1 1 1 1 1 1 1 
1 1 1 1 1 1 1 1 1 
1 1 1 1 1 1 1 1 1 
1 1 1 1 1 1 1 1 1 
1 1 1 1 1 1 1 1 1 
1 1 1 1 1 1 1 1 1 
1 1 1 1 1 1 1 1 1 
1 1 1 1 1 1 1 1 1 
1 1 1 1 1 1 1 1 1 
1 1 1 1 1 1 1 1 1 
1 1 1 1 1 1 1 1 1 
1 1 1 1 1 1 1 1 1 
1 1 1 1 1 1 1 1 1 
1 1 1 1 1 1 1 1 1 
1 1 1 1 1 1 1 1 1 
1 1 1 1 1 1 1 1 1 
1 1 1 1 1 1 1 1 1 
1 1 1 1 1 1 1 1 1 
1 1 1 1 1 1 1 1 1 
1 1 1 1 1 1 1 1 1 
1 1 1 1 1 1 1 1 1 
1 1 1 1 1 1 1 1 1 
1 1 1 1 1 1 1 1 1 
1 1 1 1 1 1 1 1 1 
1 1 1 1 1 1 1 1 1 
1 1 1 1 1 1 1 1 1 
1 1 1 1 1 1 1 1 1 
1 1 1 1 1 1 1 1 1 
1 1 1 1 1 1 1 1 1 
1 1 1 1 1 1 1 1 1 
1 1 1 1 1 1 1 1 1 
1 1 1 1 1 1 1 1 1 
1 1 1 1 1 1 1 1 1 
1 1 1 1 1 1 1 1 1 
1 1 1 1 1 1 1 1 1 
1 1 1 1 1 1 1 1 1 
1 1 1 1 1 1 1 1 1 
1 1 1 1 1 1 1 1 1 
1 1 1 1 1 1 1 1 1 
1 1 1 1 1 1 1 1 1 
1 1 1 1 1 1 1 1 1 
1 1 1 1 1 1 1 1 1 
1 1 1 1 1 1 1 1 1 
1 1 1 1 1 1 1 1 1 
1 1 1 1 1 1 1 1 1 
1 1 1 1 1 1 1 1 1 
1 1 1 1 1 1 1 1 1 
1 1 1 1 1 1 1 1 1 
1 1 1 1 1 1 1 1 1 
1 1 1 1 1 1 1 1 1 
1 1 1 1 1 1 1 1 1 
1 1 1 1 1 1 1 1 1 
1 1 1 1 1 1 1 1 1 
1 1 1 1 1 1 1 1 1 
1 1 1 1 1 1 1 1 1 
1 1 1 1 1 1 1 1 1 
1 1 1 1 1 1 1 1 1 
1 1 1 1 1 1 1 1 1 
1 1 1 1 1 1 1 1 1 
1 1 1 1 1 1 1 1 1 
1 1 1 1 1 1 1 1 1 
1 1 1 1 1 1 1 1 1 
1 1 1 1 1 1 1 1 1 
1 1 1 1 1 1 1 1 1 
1 1 1 1 1 1 1 1 1 
1 1 1 1 1 1 1 1 1 
1 1 1 1 1 1 1 1 1 
1 1 1 1 1 1 1 1 1 
1 1 1 1 1 1 1 1 1 
1 1 1 1 1 1 1 1 1 
1 1 1 1 1 1 1 1 1 
1 1 1 1 1 1 1 1 1 
1 1 1 1 1 1 1 1 1 
1 1 1 1 1 1 1 1 1 
1 1 1 1 1 1 1 1 1 
1 1 1 1 1 1 1 1 1 
1 1 1 1 1 1 1 1 1 
1 1 1 1 1 1 1 1 1 
1 1 1 1 1 1 1 1 1 
1 1 1 1 1 1 1 1 1 
1 1 1 1 1 1 1 1 1 
1 1 1 1 1 1 1 1 1 
1 1 1 1 1 1 1 1 1 
1 1 1 1 1 1 1 1 1 
1 1 1 1 1 1 1 1 1 
1 1 1 1 1 1 1 1 1 
1 1 1 1 1 1 1 1 1 
1 1 1 1 1 1 1 1 1 
1 1 1 1 1 1 1 1 1 
1 1 1 1 1 1 1 1 1 
1 1 1 1 1 1 1 1 1 
1 1 1 1 1 1 1 1 1 
1 1 1 1 1 1 1 1 1 
1 1 1 1 1 1 1 1 1 
1 1 1 1 1 1 1 1 1 
1 1 1 1 1 1 1 1 1 
1 1 1 1 1 1 1 1 1 
1 1 1 1 1 1 1 1 1 
1 1 1 1 1 1 1 1 1 
1 1 1 1 1 1 1 1 1 
1 1 1 1 1 1 1 1 1 
1 1 1 1 1 1 1 1 1 
1 1 1 1 1 1 1 1 1 
1 1 1 1 1 1 1 1 1 
1 1 1 1 1 1 1 1 1 
1 1 1 1 1 1 1 1 1 
1 1 1 1 1 1 1 1 1 
1 1 1 1 1 1 1 1 1 
1 1 1 1 1 1 1 1 1 
1 1 1 1 1 1 1 1 1 
1 1 1 1 1 1 1 1 1 
1 1 1 1 1 1 1 1 1 
1 1 1 1 1 1 1 1 1 
1 1 1 1 1 1 1 1 1 
1 1 1 1 1 1 1 1 1 
1 1 1 1 1 1 1 1 1 
1 1 1 1 1 1 1 1 1 
1 1 1 1 1 1 1 1 1 
1 1 1 1 1 1 1 1 1 
1 1 1 1 1 1 1 1 1 
1 1 1 1 1 1 1 1 1 
1 1 1 1 1 1 1 1 1 
1 1 1 1 1 1 1 1 1 
1 1 1 1 1 1 1 1 1 
1 1 1 1 1 1 1 1 1 
1 1 1 1 1 1 1 1 1 
1 1 1 1 1 1 1 1 1 
1 1 1 1 1 1 1 1 1 
1 1 1 1 1 1 1 1 1 
1 1 1 1 1 1 1 1 1 
1 1 1 1 1 1 1 1 1 
1 1 1 1 1 1 1 1 1 
1 1 1 1 1 1 1 1 1 
1 1 1 1 1 1 1 1 1 
1 1 1 1 1 1 1 1 1 
1 1 1 1 1 1 1 1 1 
1 1 1 1 1 1 1 1 1 
1 1 1 1 1 1 1 1 1 
1 1 1 1 1 1 1 1 1 
1 1 1 1 1 1 1 1 1 
1 1 1 1 1 1 1 1 1 
1 1 1 1 1 1 1 1 1 
1 1 1 1 1 1 1 1 1 
1 1 1 1 1 1 1 1 1 
1 1 1 1 1 1 1 1 1 
1 1 1 1 1 1 1 1 1 
1 1 1 1 1 1 1 1 1 
1 1 1 1 1 1 1 1 1 
1 1 1 1 1 1 1 1 1 
1 1 1 1 1 1 1 1 1 
1 1 1 1 1 1 1 1 1 
1 1 1 1 1 1 1 1 1 
1 1 1 1 1 1 1 1 1 
1 1 1 1 1 1 1 1 1 
1 1 1 1 1 1 1 1 1 
1 1 1 1 1 1 1 1 1 
1 1 1 1 1 1 1 1 1 
1 1 1 1 1 1 1 1 1 
1 1 1 1 1 1 1 1 1 
1 1 1 1 1 1 1 1 1 
1 1 1 1 1 1 1 1 1 
1 1 1 1 1 1 1 1 1 
1 1 1 1 1 1 1 1 1 
1 1 1 1 1 1 1 1 1 
1 1 1 1 1 1 1 1 1 
1 1 1 1 1 1 1 1 1 
1 1 1 1 1 1 1 1 1 
1 1 1 1 1 1 1 1 1 
1 1 1 1 1 1 1 1 1 
1 1 1 1 1 1 1 1 1 
1 1 1 1 1 1 1 1 1 
1 1 1 1 1 1 1 1 1 
1 1 1 1 1 1 1 1 1 
1 1 1 1 1 1 1 1 1 
1 1 1 1 1 1 1 1 1 
1 1 1 1 1 1 1 1 1 
1 1 1 1 1 1 1 1 1 
1 1 1 1 1 1 1 1 1 
1 1 1 1 1 1 1 1 1 
1 1 1 1 1 1 1 1 1 
1 1 1 1 1 1 1 1 1 
1 1 1 1 1 1 1 1 1 
1 1 1 1 1 1 1 1 1 
1 1 1 1 1 1 1 1 1 
1 1 1 1 1 1 1 1 1 
1 1 1 1 1 1 1 1 1 
1 1 1 1 1 1 1 1 1 
1 1 1 1 1 1 1 1 1 
1 1 1 1 1 1 1 1 1 
1 1 1 1 1 1 1 1 1 
1 1 1 1 1 1 1 1 1 
1 1 1 1 1 1 1 1 1 
1 1 1 1 1 1 1 1 1 
1 1 1 1 1 1 1 1 1 
1 1 1 1 1 1 1 1 1 
1 1 1 1 1 1 1 1 1 
1 1 1 1 1 1 1 1 1 
1 1 1 1 1 1 1 1 1 
1 1 1 1 1 1 1 1 1 
1 1 1 1 1 1 1 1 1 
1 1 1 1 1 1 1 1 1 
1 1 1 1 1 1 1 1 1 
1 1 1 1 1 1 1 1 1 
1 1 1 1 1 1 1 1 1 
1 1 1 1 1 1 1 1 1 
1 1 1 1 1 1 1 1 1 
1 1 1 1 1 1 1 1 1 
1 1 1 1 1 1 1 1 1 
1 1 1 1 1 1 1 1 1 
1 1 1 1 1 1 1 1 1 
1 1 1 1 1 1 1 1 1 
1 1 1 1 1 1 1 1 1 
1 1 1 1 1 1 1 1 1 
1 1 1 1 1 1 1 1 1 
1 1 1 1 1 1 1 1 1 
1 1 1 1 1 1 1 1 1 
1 1 1 1 1 1 1 1 1 
1 1 1 1 1 1 1 1 1 
1 1 1 1 1 1 1 1 1 
1 1 1 1 1 1 1 1 1 
1 1 1 1 1 1 1 1 1 
1 1 1 1 1 1 1 1 1 
1 1 1 1 1 1 1 1 1 
1 1 1 1 1 1 1 1 1 
1 1 1 1 1 1 1 1 1 
1 1 1 1 1 1 1 1 1 
1 1 1 1 1 1 1 1 1 
1 1 1 1 1 1 1 1 1 
1 1 1 1 1 1 1 1 1 
1 1 1 1 1 1 1 1 1 
1 1 1 1 1 1 1 1 1 
1 1 1 1 1 1 1 1 1 
1 1 1 1 1 1 1 1 1 
1 1 1 1 1 1 1 1 1 
1 1 1 1 1 1 1 1 1 
1 1 1 1 1 1 1 1 1 
1 1 1 1 1 1 1 1 1 
1 1 1 1 1 1 1 1 1 
1 1 1 1 1 1 1 1 1 
1 1 1 1 1 1 1 1 1 
1 1 1 1 1 1 1 1 1 
1 1 1 1 1 1 1 1 1 
1 1 1 1 1 1 1 1 1 
1 1 1 1 1 1 1 1 1 
1 1 1 1 1 1 1 1 1 
1 1 1 1 1 1 1 1 1 
1 1 1 1 1 1 1 1 1 
1 1 1 1 1 1 1 1 1 
1 1 1 1 1 1 1 1 1 
1 1 1 1 1 1 1 1 1 
1 1 1 1 1 1 1 1 1 
1 1 1 1 1 1 1 1 1 
1 1 1 1 1 1 1 1 1 
1 1 1 1 1 1 1 1 1 
1 1 1 1 1 1 1 1 1 
1 1 1 1 1 1 1 1 1 
1 1 1 1 1 1 1 1 1 
1 1 1 1 1 1 1 1 1 
1 1 1 1 1 1 1 1 1 
1 1 1 1 1 1 1 1 1 
1 1 1 1 1 1 1 1 1 
1 1 1 1 1 1 1 1 1 
1 1 1 1 1 1 1 1 1 
1 1 1 1 1 1 1 1 1 
1 1 1 1 1 1 1 1 1 
1 1 1 1 1 1 1 1 1 
1 1 1 1 1 1 1 1 1 
1 1 1 1 1 1 1 1 1 
1 1 1 1 1 1 1 1 1 
1 1 1 1 1 1 1 1 1 
1 1 1 1 1 1 1 1 1 
1 1 1 1 1 1 1 1 1 
1 1 1 1 1 1 1 1 1 
1 1 1 1 1 1 1 1 1 
1 1 1 1 1 1 1 1 1 
1 1 1 1 1 1 1 1 1 
1 1 1 1 1 1 1 1 1 
1 1 1 1 1 1 1 1 1 
1 1 1 1 1 1 1 1 1 
1 1 1 1 1 1 1 1 1 
1 1 1 1 1 1 1 1 1 
1 1 1 1 1 1 1 1 1 
1 1 1 1 1 1 1 1 1 
1 1 1 1 1 1 1 1 1 
1 1 1 1 1 1 1 1 1 
1 1 1 1 1 1 1 1 1 
1 1 1 1 1 1 1 1 1 
1 1 1 1 1 1 1 1 1 
1 1 1 1 1 1 1 1 1 
1 1 1 1 1 1 1 1 1 
1 1 1 1 1 1 1 1 1 
1 1 1 1 1 1 1 1 1 
1 1 1 1 1 1 1 1 1 
1 1 1 1 1 1 1 1 1 
1 1 1 1 1 1 1 1 1 
1 1 1 1 1 1 1 1 1 
1 1 1 1 1 1 1 1 1 
1 1 1 1 1 1 1 1 1 
1 1 1 1 1 1 1 1 1 
1 1 1 1 1 1 1 1 1 
1 1 1 1 1 1 1 1 1 
1 1 1 1 1 1 1 1 1 
1 1 1 1 1 1 1 1 1 
1 1 1 1 1 1 1 1 1 
1 1 1 1 1 1 1 1 1 
1 1 1 1 1 1 1 1 1 
1 1 1 1 1 1 1 1 1 
1 1 1 1 1 1 1 1 1 
1 1 1 1 1 1 1 1 1 
1 1 1 1 1 1 1 1 1 
1 1 1 1 1 1 1 1 1 
1 1 1 1 1 1 1 1 1 
1 1 1 1 1 1 1 1 1 
1 1 1 1 1 1 1 1 1 
1 1 1 1 1 1 1 1 1 
1 1 1 1 1 1 1 1 1 
1 1 1 1 1 1 1 1 1 
1 1 1 1 1 1 1 1 1 
1 1 1 1 1 1 1 1 1 
1 1 1 1 1 1 1 1 1 
1 1 1 1 1 1 1 1 1 
1 1 1 1 1 1 1 1 1 
1 1 1 1 1 1 1 1 1 
1 1 1 1 1 1 1 1 1 
1 1 1 1 1 1 1 1 1 
1 1 1 1 1 1 1 1 1 
1 1 1 1 1 1 1 1 1 
1 1 1 1 1 1 1 1 1 
1 1 1 1 1 1 1 1 1 
1 1 1 1 1 1 1 1 1 
1 1 1 1 1 1 1 1 1 
1 1 1 1 1 1 1 1 1 
1 1 1 1 1 1 1 1 1 
1 1 1 1 1 1 1 1 1 
1 1 1 1 1 1 1 1 1 
1 1 1 1 1 1 1 1 1 
1 1 1 1 1 1 1 1 1 
1 1 1 1 1 1 1 1 1 
1 1 1 1 1 1 1 1 1 
1 1 1 1 1 1 1 1 1 
1 1 1 1 1 1 1 1 1 
1 1 1 1 1 1 1 1 1 
1 1 1 1 1 1 1 1 1 
1 1 1 1 1 1 1 1 1 
1 1 1 1 1 1 1 1 1 
1 1 1 1 1 1 1 1 1 
1 1 1 1 1 1 1 1 1 
1 1 1 1 1 1 1 1 1 
1 1 1 1 1 1 1 1 1 
1 1 1 1 1 1 1 1 1 
1 1 1 1 1 1 1 1 1 
1 1 1 1 1 1 1 1 1 
1 1 1 1 1 1 1 1 1 
1 1 1 1 1 1 1 1 1 
1 1 1 1 1 1 1 1 1 
1 1 1 1 1 1 1 1 1 
1 1 1 1 1 1 1 1 1 
1 1 1 1 1 1 1 1 1 
1 1 1 1 1 1 1 1 1 
1 1 1 1 1 1 1 1 1 
1 1 1 1 1 1 1 1 1 
1 1 1 1 1 1 1 1 1 
1 1 1 1 1 1 1 1 1 
1 1 1 1 1 1 1 1 1 
1 1 1 1 1 1 1 1 1 
1 1 1 1 1 1 1 1 1 
1 1 1 1 1 1 1 1 1 
1 1 1 1 1 1 1 1 1 
1 1 1 1 1 1 1 1 1 
1 1 1 1 1 1 1 1 1 
1 1 1 1 1 1 1 1 1 
1 1 1 1 1 1 1 1 1 
1 1 1 1 1 1 1 1 1 
1 1 1 1 1 1 1 1 1 
1 1 1 1 1 1 1 1 1 
1 1 1 1 1 1 1 1 1 
1 1 1 1 1 1 1 1 1 
1 1 1 1 1 1 1 1 1 
1 1 1 1 1 1 1 1 1 
1 1 1 1 1 1 1 1 1 
1 1 1 1 1 1 1 1 1 
1 1 1 1 1 1 1 1 1 
1 1 1 1 1 1 1 1 1 
1 1 1 1 1 1 1 1 1 
1 1 1 1 1 1 1 1 1 
1 1 1 1 1 1 1 1 1 
1 1 1 1 1 1 1 1 1 
1 1 1 1 1 1 1 1 1 
1 1 1 1 1 1 1 1 1 
1 1 1 1 1 1 1 1 1 
1 1 1 1 1 1 1 1 1 
1 1 1 1 1 1 1 1 1 
1 1 1 1 1 1 1 1 1 
1 1 1 1 1 1 1 1 1 
1 1 1 1 1 1 1 1 1 
1 1 1 1 1 1 1 1 1 
1 1 1 1 1 1 1 1 1 
1 1 1 1 1 1 1 1 1 
1 1 1 1 1 1 1 1 1 
1 1 1 1 1 1 1 1 1 
1 1 1 1 1 1 1 1 1 
1 1 1 1 1 1 1 1 1 
1 1 1 1 1 1 1 1 1 
1 1 1 1 1 1 1 1 1 
1 1 1 1 1 1 1 1 1 
1 1 1 1 1 1 1 1 1 
1 1 1 1 1 1 1 1 1 
1 1 1 1 1 1 1 1 1 
1 1 1 1 1 1 1 1 1 
1 1 1 1 1 1 1 1 1 
1 1 1 1 1 1 1 1 1 
1 1 1 1 1 1 1 1 1 
1 1 1 1 1 1 1 1 1 
1 1 1 1 1 1 1 1 1 
1 1 1 1 1 1 1 1 1 
1 1 1 1 1 1 1 1 1 
1 1 1 1 1 1 1 1 1 
1 1 1 1 1 1 1 1 1 
1 1 1 1 1 1 1 1 1 
1 1 1 1 1 1 1 1 1 
1 1 1 1 1 1 1 1 1 
1 1 1 1 1 1 1 1 1 
1 1 1 1 1 1 1 1 1 
1 1 1 1 1 1 1 1 1 
1 1 1 1 1 1 1 1 1 
1 1 1 1 1 1 1 1 1 
1 1 1 1 1 1 1 1 1 
1 1 1 1 1 1 1 1 1 
1 1 1 1 1 1 1 1 1 
1 1 1 1 1 1 1 1 1 
1 1 1 1 1 1 1 1 1 
1 1 1 1 1 1 1 1 1 
1 1 1 1 1 1 1 1 1 
1 1 1 1 1 1 1 1 1 
1 1 1 1 1 1 1 1 1 
1 1 1 1 1 1 1 1 1 
1 1 1 1 1 1 1 1 1 
1 1 1 1 1 1 1 1 1 
1 1 1 1 1 1 1 1 1 
1 1 1 1 1 1 1 1 1 
1 1 1 1 1 1 1 1 1 
1 1 1 1 1 1 1 1 1 
1 1 1 1 1 1 1 1 1 
1 1 1 1 1 1 1 1 1 
1 1 1 1 1 1 1 1 1 
1 1 1 1 1 1 1 1 1 
1 1 1 1 1 1 1 1 1 
1 1 1 1 1 1 1 1 1 
1 1 1 1 1 1 1 1 1 
1 1 1 1 1 1 1 1 1 
1 1 1 1 1 1 1 1 1 
1 1 1 1 1 1 1 1 1 
1 1 1 1 1 1 1 1 1 
1 1 1 1 1 1 1 1 1 
1 1 1 1 1 1 1 1 1 
1 1 1 1 1 1 1 1 1 
1 1 1 1 1 1 1 1 1 
1 1 1 1 1 1 1 1 1 
1 1 1 1 1 1 1 1 1 
1 1 1 1 1 1 1 1 1 
1 1 1 1 1 1 1 1 1 
1 1 1 1 1 1 1 1 1 
1 1 1 1 1 1 1 1 1 
1 1 1 1 1 1 1 1 1 
1 1 1 1 1 1 1 1 1 
1 1 1 1 1 1 1 1 1 
1 1 1 1 1 1 1 1 1 
1 1 1 1 1 1 1 1 1 
1 1 1 1 1 1 1 1 1 
1 1 1 1 1 1 1 1 1 
1 1 1 1 1 1 1 1 1 
1 1 1 1 1 1 1 1 1 
1 1 1 1 1 1 1 1 1 
1 1 1 1 1 1 1 1 1 
1 1 1 1 1 1 1 1 1 
1 1 1 1 1 1 1 1 1 
1 1 1 1 1 1 1 1 1 
1 1 1 1 1 1 1 1 1 
1 1 1 1 1 1 1 1 1 
1 1 1 1 1 1 1 1 1 
1 1 1 1 1 1 1 1 1 
1 1 1 1 1 1 1 1 1 
1 1 1 1 1 1 1 1 1 
1 1 1 1 1 1 1 1 1 
1 1 1 1 1 1 1 1 1 
1 1 1 1 1 1 1 1 1 
1 1 1 1 1 1 1 1 1 
1 1 1 1 1 1 1 1 1 
1 1 1 1 1 1 1 1 1 
1 1 1 1 1 1 1 1 1 
1 1 1 1 1 1 1 1 1 
1 1 1 1 1 1 1 1 1 
1 1 1 1 1 1 1 1 1 
1 1 1 1 1 1 1 1 1 
1 1 1 1 1 1 1 1 1 
1 1 1 1 1 1 1 1 1 
1 1 1 1 1 1 1 1 1 
1 1 1 1 1 1 1 1 1 
1 1 1 1 1 1 1 1 1 
1 1 1 1 1 1 1 1 1 
1 1 1 1 1 1 1 1 1 
1 1 1 1 1 1 1 1 1 
1 1 1 1 1 1 1 1 1 
1 1 1 1 1 1 1 1 1 
1 1 1 1 1 1 1 1 1 
1 1 1 1 1 1 1 1 1 
1 1 1 1 1 1 1 1 1 
1 1 1 1 1 1 1 1 1 
1 1 1 1 1 1 1 1 1 
1 1 1 1 1 1 1 1 1 
1 1 1 1 1 1 1 1 1 
1 1 1 1 1 1 1 1 1 
1 1 1 1 1 1 1 1 1 
1 1 1 1 1 1 1 1 1 
1 1 1 1 1 1 1 1 1 
1 1 1 1 1 1 1 1 1 
1 1 1 1 1 1 1 1 1 
1 1 1 1 1 1 1 1 1 
1 1 1 1 1 1 1 1 1 
1 1 1 1 1 1 1 1 1 
1 1 1 1 1 1 1 1 1 
1 1 1 1 1 1 1 1 1 
1 1 1 1 1 1 1 1 1 
1 1 1 1 1 1 1 1 1 
1 1 1 1 1 1 1 1 1 
1 1 1 1 1 1 1 1 1 
1 1 1 1 1 1 1 1 1 
1 1 1 1 1 1 1 1 1 
1 1 1 1 1 1 1 1 1 
1 1 1 1 1 1 1 1 1 
1 1 1 1 1 1 1 1 1 
1 1 1 1 1 1 1 1 1 
1 1 1 1 1 1 1 1 1 
1 1 1 1 1 1 1 1 1 
1 1 1 1 1 1 1 1 1 
1 1 1 1 1 1 1 1 1 
1 1 1 1 1 1 1 1 1 
1 1 1 1 1 1 1 1 1 
1 1 1 1 1 1 1 1 1 
1 1 1 1 1 1 1 1 1 
1 1 1 1 1 1 1 1 1 
1 1 1 1 1 1 1 1 1 
1 1 1 1 1 1 1 1 1 
1 1 1 1 1 1 1 1 1 
1 1 1 1 1 1 1 1 1 
1 1 1 1 1 1 1 1 1 
1 1 1 1 1 1 1 1 1 
1 1 1 1 1 1 1 1 1 
1 1 1 1 1 1 1 1 1 
1 1 1 1 1 1 1 1 1 
1 1 1 1 1 1 1 1 1 
1 1 1 1 1 1 1 1 1 
1 1 1 1 1 1 1 1 1 
1 1 1 1 1 1 1 1 1 
1 1 1 1 1 1 1 1 1 
1 1 1 1 1 1 1 1 1 
1 1 1 1 1 1 1 1 1 
1 1 1 1 1 1 1 1 1 
1 1 1 1 1 1 1 1 1 
1 1 1 1 1 1 1 1 1 
1 1 1 1 1 1 1 1 1 
1 1 1 1 1 1 1 1 1 
1 1 1 1 1 1 1 1 1 
1 1 1 1 1 1 1 1 1 
1 1 1 1 1 1 1 1 1 
1 1 1 1 1 1 1 1 1 
1 1 1 1 1 1 1 1 1 
1 1 1 1 1 1 1 1 1 
1 1 1 1 1 1 1 1 1 
1 1 1 1 1 1 1 1 1 
1 1 1 1 1 1 1 1 1 
1 1 1 1 1 1 1 1 1 
1 1 1 1 1 1 1 1 1 
1 1 1 1 1 1 1 1 1 
1 1 1 1 1 1 1 1 1 
1 1 1 1 1 1 1 1 1 
1 1 1 1 1 1 1 1 1 
1 1 1 1 1 1 1 1 1 
1 1 1 1 1 1 1 1 1 
1 1 1 1 1 1 1 1 1 
1 1 1 1 1 1 1 1 1 
1 1 1 1 1 1 1 1 1 
1 1 1 1 1 1 1 1 1 
1 1 1 1 1 1 1 1 1 
1 1 1 1 1 1 1 1 1 
1 1 1 1 1 1 1 1 1 
1 1 1 1 1 1 1 1 1 
1 1 1 1 1 1 1 1 1 
1 1 1 1 1 1 1 1 1 
1 1 1 1 1 1 1 1 1 
1 1 1 1 1 1 1 1 1 
1 1 1 1 1 1 1 1 1 
1 1 1 1 1 1 1 1 1 
1 1 1 1 1 1 1 1 1 
1 1 1 1 1 1 1 1 1 
1 1 1 1 1 1 1 1 1 
1 1 1 1 
NORMALS normals float
-0.0166644 0 -0.999861 -0.0169443 -0.999713 -0.0169443 -0.999861 0 -0.0166644 
0 0 -1 0 -0.70114 -0.713024 0.016662 -0.016662 -0.999722 
0.0117843 -0.707058 -0.707058 0.707058 -0.0117843 -0.707058 -0.0118829 0.70109 -0.712973 
-0.574089 0.574089 -0.583819 -0.570882 0.580558 -0.580558 0 0.0166644 -0.999861 
0.70109 0.0118829 -0.712973 0 -0.0166644 -0.999861 0 -0.999861 -0.0166644 
-0.70109 -0.0118829 -0.712973 0.70109 -0.0118829 -0.712973 0 0.707107 -0.707107 
0 0 -1 -0.70114 0 -0.713024 0.70114 0 -0.713024 
0 0 -1 -0.574089 -0.574089 -0.583819 0.70114 0 -0.713024 
-0.016662 -0.016662 -0.999722 -0.0117843 -0.707058 -0.707058 -0.707058 -0.0117843 -0.707058 
0 0 -1 -0.574089 -0.574089 -0.583819 0.016662 0.016662 -0.999722 
0.707058 0.0117843 -0.707058 0 0 -1 -0.70114 0 -0.713024 
0.574089 0.574089 -0.583819 0.574089 0.574089 -0.583819 0.0117843 0.707058 -0.707058 
-0.0166644 0 -0.999861 -0.0118829 -0.70109 -0.712973 -0.999861 0 -0.0166644 
0.016662 -0.016662 -0.999722 0.0117843 -0.707058 -0.707058 0.016662 -0.016662 -0.999722 
0 0 -1 0 0 -1 0.70114 0 -0.713024 
-0.580558 0.570882 -0.580558 -0.574089 0.574089 -0.583819 0 0 -1 
0 -0.70114 -0.713024 0 0 -1 0 -0.70114 -0.713024 
0.70114 0 -0.713024 -0.0166644 0 -0.999861 -0.707107 0 -0.707107 
0 -0.70114 -0.713024 0 0 -1 0.016662 0.016662 -0.999722 
0.707058 0.0117843 -0.707058 0 0 -1 -0.70114 0 -0.713024 
0.574089 0.574089 -0.583819 0.574089 0.574089 -0.583819 0.0117843 0.707058 -0.707058 
0 0 -1 -0.70114 0 -0.713024 0.70114 0 -0.713024 
0 0 -1 -0.70114 0 -0.713024 0.70114 0 -0.713024 
0 0 -1 -0.70114 0 -0.713024 0.70114 0 -0.713024 
-0.016662 -0.016662 -0.999722 -0.0117843 -0.707058 -0.707058 -0.707058 -0.0117843 -0.707058 
0 0 -1 0 -0.70114 -0.713024 0.0166644 0 -0.999861 
0.0118829 -0.70109 -0.712973 0.707107 0 -0.707107 0 0 -1 
-0.574089 -0.574089 -0.583819 0.70114 0 -0.713024 0 0.0166644 -0.999861 
-0.70109 0.0118829 -0.712973 0.570882 0.580558 -0.580558 0.574089 0.574089 -0.583819 
0.0118829 0.70109 -0.712973 -0.0166644 0 -0.999861 -0.580558 -0.570882 -0.580558 
-0.580558 -0.570882 -0.580558 0.016662 0.016662 -0.999722 0.707058 0.0117843 -0.707058 
0 0.707107 -0.707107 0 -0.0166644 -0.999861 -0.570882 -0.580558 -0.580558 
-0.70109 -0.0118829 -0.712973 0.56751 0.577295 -0.58708 0.577295 0.56751 -0.58708 
0.0117843 0.707058 -0.707058 0 0 -1 -0.70114 0 -0.713024 
0.70114 0 -0.713024 0 0 -1 -0.70114 0 -0.713024 
0.70114 0 -0.713024 0 0 -1 -0.70114 0 -0.713024 
0.70114 0 -0.713024 0 0 -1 -0.70114 0 -0.713024 
0.70114 0 -0.713024 0 0.0166644 -0.999861 -0.70109 0.0118829 -0.712973 
0.70109 0.0118829 -0.712973 0 0.707107 -0.707107 0 0 -1 
0 -0.70114 -0.713024 -0.999856 0 -0.0169467 0.574089 -0.574089 -0.583819 
-0.574089 0.574089 -0.583819 0.570882 -0.580558 -0.580558 -0.577295 0.56751 -0.58708 
0 -0.0166644 -0.999861 0.570882 -0.580558 -0.580558 -0.016662 0.016662 -0.999722 
-0.707058 0.0117843 -0.707058 0.574089 -0.574089 -0.583819 0 0 -1 
0.016662 -0.016662 -0.999722 0.0117843 -0.707058 -0.707058 0.707058 -0.0117843 -0.707058 
-0.0117843 0.707058 -0.707058 -0.574089 0.574089 -0.583819 -0.574089 0.574089 -0.583819 
0 0 -1 0.70114 0 -0.713024 0 0 -1 
-0.70114 0 -0.713024 0.70114 0 -0.713024 0 0.0166644 -0.999861 
-0.70109 0.0118829 -0.712973 0.577295 -0.56751 -0.58708 -0.570882 0.580558 -0.580558 
0.574089 -0.574089 -0.583819 -0.574089 0.574089 -0.583819 0 0 -1 
0.70114 0 -0.713024 0 0.70114 -0.713024 -0.0117843 -0.707058 -0.707058 
-0.016662 -0.999722 -0.016662 -0.707058 -0.707058 -0.0117843 0 -0.707107 -0.707107 
0 -0.999861 -0.0166644 0 -0.0166644 -0.999861 0 -0.999861 -0.0166644 
0 -0.0166644 -0.999861 0 -0.999861 -0.0166644 0 -0.0166644 -0.999861 
0 -0.999861 -0.0166644 0 -0.0166644 -0.999861 0 -0.999861 -0.0166644 
0 -0.0166644 -0.999861 0 -0.999861 -0.0166644 0 -0.0166644 -0.999861 
0 -0.999861 -0.0166644 0 -0.0166644 -0.999861 0 -0.999861 -0.0166644 
0.016662 -0.016662 -0.999722 0.016662 -0.999722 -0.016662 0.999722 -0.016662 -0.016662 
-0.707107 -0.707107 0 -0.707107 -0.707107 0 0.70114 0 -0.713024 