# vtk DataFile Version 3.0
vtk output
ASCII
DATASET POLYDATA
POINTS 6470 float
119 60 9.00961 119 59.0096 10 118.01 60 10 
120 60 9.00961 120 59.0096 10 120.99 60 10 
118 61 9.00961 118 60.0096 10 117.01 61 10 
119 61 9.00961 120 61 9.00961 120.99 61 10 
117 62 9.00961 117 61.0096 10 116.01 62 10 
118 62 9.00961 119 62 9.00961 120 62 9.00961 
121 61.0096 10 121 62 9.00961 122 62 9.00961 
122 61.0096 10 123 62 9.00961 123 61.0096 10 
124 62 9.00961 124 61.0096 10 125 62 9.00961 
125 61.0096 10 126 62 9.00961 126 61.0096 10 
127 62 9.00961 127 61.0096 10 128 62 9.00961 
128 61.0096 10 128.99 62 10 116 63 9.00961 
116 62.0096 10 115.01 63 10 117 63 9.00961 
118 63 9.00961 119 63 9.00961 120 63 9.00961 
121 63 9.00961 122 63 9.00961 123 63 9.00961 
124 63 9.00961 125 63 9.00961 126 63 9.00961 
127 63 9.00961 128 63 9.00961 128.99 63 10 
115 64 9.00961 115 63.0096 10 114.01 64 10 
116 64 9.00961 117 64 9.00961 118 64 9.00961 
119 64 9.00961 120 64 9.00961 121 64 9.00961 
122 64 9.00961 123 64 9.00961 124 64 9.00961 
125 64 9.00961 126 64 9.00961 127 64 9.00961 
128 64 9.00961 128.99 64 10 114 65 9.00961 
114 64.0096 10 113.01 65 10 115 65 9.00961 
116 65 9.00961 117 65 9.00961 118 65 9.00961 
119 65 9.00961 120 65 9.00961 121 65 9.00961 
122 65 9.00961 123 65 9.00961 124 65 9.00961 
125 65 9.00961 126 65 9.00961 127 65 9.00961 
128 65 9.00961 128.99 65 10 113 66 9.00961 
113 65.0096 10 112.01 66 10 114 66 9.00961 
115 66 9.00961 116 66 9.00961 117 66 9.00961 
118 66 9.00961 119 66 9.00961 120 66 9.00961 
121 66 9.00961 122 66 9.00961 123 66 9.00961 
124 66 9.00961 125 66 9.00961 126 66 9.00961 
127 66 9.00961 128 66 9.00961 129 65.0096 10 
129 66 9.00961 130 66 9.00961 130 65.0096 10 
130.99 66 10 112 67 9.00961 112 66.0096 10 
111.01 67 10 113 67 9.00961 114 67 9.00961 
115 67 9.00961 116 67 9.00961 117 67 9.00961 
118 67 9.00961 119 67 9.00961 120 67 9.00961 
121 67 9.00961 122 67 9.00961 123 67 9.00961 
124 67 9.00961 125 67 9.00961 126 67 9.00961 
127 67 9.00961 128 67 9.00961 129 67 9.00961 
130 67 9.00961 130.99 67 10 111 68 9.00961 
111 67.0096 10 110.01 68 10 112 68 9.00961 
113 68 9.00961 114 68 9.00961 115 68 9.00961 
116 68 9.00961 117 68 9.00961 118 68 9.00961 
119 68 9.00961 120 68 9.00961 121 68 9.00961 
122 68 9.00961 123 68 9.00961 124 68 9.00961 
125 68 9.00961 126 68 9.00961 127 68 9.00961 
128 68 9.00961 129 68 9.00961 130 68 9.00961 
130.99 68 10 111 69 9.00961 110.01 69 10 
112 69 9.00961 113 69 9.00961 114 69 9.00961 
115 69 9.00961 116 69 9.00961 117 69 9.00961 
118 69 9.00961 119 69 9.00961 120 69 9.00961 
121 69 9.00961 122 69 9.00961 123 69 9.00961 
124 69 9.00961 125 69 9.00961 126 69 9.00961 
127 69 9.00961 128 69 9.00961 129 69 9.00961 
130 69 9.00961 130.99 69 10 111 70 9.00961 
110.01 70 10 112 70 9.00961 113 70 9.00961 
114 70 9.00961 115 70 9.00961 116 70 9.00961 
117 70 9.00961 118 70 9.00961 119 70 9.00961 
120 70 9.00961 121 70 9.00961 122 70 9.00961 
123 70 9.00961 124 70 9.00961 125 70 9.00961 
126 70 9.00961 127 70 9.00961 128 70 9.00961 
129 70 9.00961 130 70 9.00961 130.99 70 10 
111 71 9.00961 110.01 71 10 112 71 9.00961 
113 71 9.00961 114 71 9.00961 115 71 9.00961 
116 71 9.00961 117 71 9.00961 118 71 9.00961 
119 71 9.00961 120 71 9.00961 121 71 9.00961 
122 71 9.00961 123 71 9.00961 124 71 9.00961 
125 71 9.00961 126 71 9.00961 127 71 9.00961 
128 71 9.00961 129 71 9.00961 130 71 9.00961 
130.99 71 10 111 72 9.00961 110.01 72 10 
112 72 9.00961 113 72 9.00961 114 72 9.00961 
115 72 9.00961 116 72 9.00961 117 72 9.00961 
118 72 9.00961 119 72 9.00961 120 72 9.00961 
121 72 9.00961 122 72 9.00961 123 72 9.00961 
124 72 9.00961 125 72 9.00961 126 72 9.00961 
127 72 9.00961 128 72 9.00961 129 72 9.00961 
130 72 9.00961 130.99 72 10 111 73 9.00961 
110.01 73 10 112 73 9.00961 113 73 9.00961 
114 73 9.00961 115 73 9.00961 116 73 9.00961 
117 73 9.00961 118 73 9.00961 119 73 9.00961 
120 73 9.00961 121 73 9.00961 122 73 9.00961 
123 73 9.00961 124 73 9.00961 125 73 9.00961 
126 73 9.00961 127 73 9.00961 128 73 9.00961 
129 73 9.00961 129.99 73 10 130 72.9904 10 
111 73.9904 10 112 73.9904 10 113 73.9904 10 
114 73.9904 10 115 73.9904 10 116 73.9904 10 
116.01 74 10 117 74 9.00961 118 74 9.00961 
119 74 9.00961 120 74 9.00961 121 74 9.00961 
122 74 9.00961 123 74 9.00961 124 74 9.00961 
125 74 9.00961 126 74 9.00961 127 74 9.00961 
128 74 9.00961 128.99 74 10 129 73.9904 10 
117 75 9.00961 116.01 75 10 118 75 9.00961 
119 75 9.00961 120 75 9.00961 121 75 9.00961 
122 75 9.00961 123 75 9.00961 124 75 9.00961 
125 75 9.00961 126 75 9.00961 127 75 9.00961 
127.99 75 10 128 74.9904 10 117 75.9904 10 
118 75.9904 10 119 75.9904 10 120 75.9904 10 
121 75.9904 10 122 75.9904 10 123 75.9904 10 
124 75.9904 10 125 75.9904 10 126 75.9904 10 
127 75.9904 10 118 59 10.0096 118 58.0096 11 
117.01 59 11 119 59 10.0096 119 58.0096 11 
120 59 10.0096 120 58.0096 11 120.99 59 11 
118 60 10.0096 117.01 60 11 120.99 60 11 
116 61 10.0096 116 60.0096 11 115.01 61 11 
117 61 10.0096 117 60.0096 11 121 60.0096 11 
121 61 10.0096 122 61 10.0096 122 60.0096 11 
123 61 10.0096 123 60.0096 11 124 61 10.0096 
124 60.0096 11 125 61 10.0096 125 60.0096 11 
126 61 10.0096 126 60.0096 11 127 61 10.0096 
127 60.0096 11 128 61 10.0096 128 60.0096 11 
128.99 61 11 116 62 10.0096 115.01 62 11 
128.99 62 11 114 63 10.0096 114 62.0096 11 
113.01 63 11 115 63 10.0096 115 62.0096 11 
128.99 63 11 114 64 10.0096 113.01 64 11 
128.99 64 11 112 65 10.0096 112 64.0096 11 
111.01 65 11 113 65 10.0096 113 64.0096 11 
129 64.0096 11 129 65 10.0096 130 65 10.0096 
130 64.0096 11 130.99 65 11 112 66 10.0096 
111.01 66 11 130.99 66 11 110 67 10.0096 
110 66.0096 11 109.01 67 11 111 67 10.0096 
111 66.0096 11 130.99 67 11 110 68 10.0096 
109.01 68 11 130.99 68 11 110 69 10.0096 
109.01 69 11 130.99 69 11 110 70 10.0096 
109.01 70 11 130.99 70 11 110 71 10.0096 
109.01 71 11 130.99 71 11 110 72 10.0096 
109.01 72 11 130.99 72 11 110 73 10.0096 
109.01 73 11 130 73 10.0096 130.99 73 11 
110 73.9904 11 111 73.9904 11 112 73.9904 11 
113 73.9904 11 114 73.9904 11 115 73.9904 11 
116 74 10.0096 115.01 74 11 128.99 74 11 
129 73.9904 11 130 73.9904 11 116 75 10.0096 
115.01 75 11 128 75 10.0096 128.99 75 11 
116 75.9904 11 117 75.9904 11 118 75.9904 11 
119 75.9904 11 120 75.9904 11 121 75.9904 11 
122 75.9904 11 123 75.9904 11 124 75.9904 11 
125 75.9904 11 126 75.9904 11 127 75.9904 11 
128 75.9904 11 115 56 11.0096 115 55.0096 12 
114.01 56 12 116 56 11.0096 116 55.0096 12 
117 56 11.0096 117 55.0096 12 118 56 11.0096 
118 55.0096 12 119 56 11.0096 119 55.0096 12 
120 56 11.0096 120 55.0096 12 121 56 11.0096 
121 55.0096 12 122 56 11.0096 122 55.0096 12 
123 56 11.0096 123 55.0096 12 124 56 11.0096 
124 55.0096 12 125 56 11.0096 125 55.0096 12 
126 56 11.0096 126 55.0096 12 126.99 56 12 
114 57 11.0096 114 56.0096 12 113.01 57 12 
115 57 11.0096 116 57 11.0096 117 57 11.0096 
118 57 11.0096 119 57 11.0096 120 57 11.0096 
121 57 11.0096 122 57 11.0096 123 57 11.0096 
124 57 11.0096 125 57 11.0096 126 57 11.0096 
126.99 57 12 113 58 11.0096 113 57.0096 12 
112.01 58 12 114 58 11.0096 115 58 11.0096 
116 58 11.0096 117 58 11.0096 118 58 11.0096 
119 58 11.0096 120 58 11.0096 121 58 11.0096 
122 58 11.0096 123 58 11.0096 124 58 11.0096 
125 58 11.0096 126 58 11.0096 127 57.0096 12 
127 58 11.0096 128 58 11.0096 128 57.0096 12 
128.99 58 12 113 59 11.0096 112.01 59 12 
114 59 11.0096 115 59 11.0096 116 59 11.0096 
117 59 11.0096 121 59 11.0096 122 59 11.0096 
123 59 11.0096 124 59 11.0096 125 59 11.0096 
126 59 11.0096 127 59 11.0096 128 59 11.0096 
128.99 59 12 113 60 11.0096 112.01 60 12 
114 60 11.0096 115 60 11.0096 116 60 11.0096 
117 60 11.0096 121 60 11.0096 122 60 11.0096 
123 60 11.0096 124 60 11.0096 125 60 11.0096 
126 60 11.0096 127 60 11.0096 128 60 11.0096 
129 59.0096 12 129 60 11.0096 130 60 11.0096 
130 59.0096 12 130.99 60 12 113 61 11.0096 
112.01 61 12 114 61 11.0096 115 61 11.0096 
129 61 11.0096 130 61 11.0096 130.99 61 12 
113 62 11.0096 112.01 62 12 114 62 11.0096 
115 62 11.0096 129 62 11.0096 130 62 11.0096 
131 61.0096 12 131 62 11.0096 132 62 11.0096 
132 61.0096 12 132.99 62 12 112 63 11.0096 
112 62.0096 12 111.01 63 12 113 63 11.0096 
129 63 11.0096 130 63 11.0096 131 63 11.0096 
132 63 11.0096 132.99 63 12 107 64 11.0096 
107 63.0096 12 106.01 64 12 108 64 11.0096 
108 63.0096 12 109 64 11.0096 109 63.0096 12 
110 64 11.0096 110 63.0096 12 111 64 11.0096 
111 63.0096 12 112 64 11.0096 113 64 11.0096 
129 64 11.0096 130 64 11.0096 131 64 11.0096 
132 64 11.0096 132.99 64 12 106 65 11.0096 
106 64.0096 12 105.01 65 12 107 65 11.0096 
108 65 11.0096 109 65 11.0096 110 65 11.0096 
111 65 11.0096 131 65 11.0096 132 65 11.0096 
132.99 65 12 103 66 11.0096 103 65.0096 12 
102.01 66 12 104 66 11.0096 104 65.0096 12 
105 66 11.0096 105 65.0096 12 106 66 11.0096 
107 66 11.0096 108 66 11.0096 109 66 11.0096 
110 66 11.0096 111 66 11.0096 131 66 11.0096 
132 66 11.0096 132.99 66 12 103 67 11.0096 
102.01 67 12 104 67 11.0096 105 67 11.0096 
106 67 11.0096 107 67 11.0096 108 67 11.0096 
109 67 11.0096 131 67 11.0096 132 67 11.0096 
132.99 67 12 103 68 11.0096 102.01 68 12 
104 68 11.0096 105 68 11.0096 106 68 11.0096 
107 68 11.0096 108 68 11.0096 109 68 11.0096 
131 68 11.0096 132 68 11.0096 133 67.0096 12 
133 68 11.0096 134 68 11.0096 134 67.0096 12 
134.99 68 12 102 69 11.0096 102 68.0096 12 
101.01 69 12 103 69 11.0096 104 69 11.0096 
105 69 11.0096 106 69 11.0096 107 69 11.0096 
108 69 11.0096 109 69 11.0096 131 69 11.0096 
132 69 11.0096 133 69 11.0096 134 69 11.0096 
134.99 69 12 102 69.9904 12 102.01 70 12 
103 70 11.0096 104 70 11.0096 105 70 11.0096 
106 70 11.0096 107 70 11.0096 108 70 11.0096 
109 70 11.0096 131 70 11.0096 132 70 11.0096 
133 70 11.0096 134 70 11.0096 134.99 70 12 
103 71 11.0096 102.01 71 12 104 71 11.0096 
105 71 11.0096 106 71 11.0096 107 71 11.0096 
108 71 11.0096 109 71 11.0096 131 71 11.0096 
132 71 11.0096 133 71 11.0096 134 71 11.0096 
[...]
POINT_DATA 6470
SCALARS scalars float
LOOKUP_TABLE default
1 1 1 1 1 1 1 1 1 
1 1 1 1 1 1 1 1 1 
1 1 1 1 1 1 1 1 1 
1 1 1 1 1 1 1 1 1 
1 1 1 1 1 1 1 1 1 
1 1 1 1 1 1 1 1 1 
1 1 1 1 1 1 1 1 1 
1 1 1 1 1 1 1 1 1 
1 1 1 1 1 1 1 1 1 
1 1 1 1 1 1 1 1 1 
1 1 1 1 1 1 1 1 1 
1 1 1 1 1 1 1 1 1 
1 1 1 1 1 1 1 1 1 
1 1 1 1 1 1 1 1 1 
1 1 1 1 1 1 1 1 1 
1 1 1 1 1 1 1 1 1 
1 1 1 1 1 1 1 1 1 
1 1 1 1 1 1 1 1 1 
1 1 1 1 1 1 1 1 1 
1 1 1 1 1 1 1 1 1 
1 1 1 1 1 1 1 1 1 
1 1 1 1 1 1 1 1 1 
1 1 1 1 1 1 1 1 1 
1 1 1 1 1 1 1 1 1 
1 1 1 1 1 1 1 1 1 
1 1 1 1 1 1 1 1 1 
1 1 1 1 1 1 1 1 1 
1 1 1 1 1 1 1 1 1 
1 1 1 1 1 1 1 1 1 
1 1 1 1 1 1 1 1 1 
1 1 1 1 1 1 1 1 1 
1 1 1 1 1 1 1 1 1 
1 1 1 1 1 1 1 1 1 
1 1 1 1 1 1 1 1 1 
1 1 1 1 1 1 1 1 1 
1 1 1 1 1 1 1 1 1 
1 1 1 1 1 1 1 1 1 
1 1 1 1 1 1 1 1 1 
1 1 1 1 1 1 1 1 1 
1 1 1 1 1 1 1 1 1 
1 1 1 1 1 1 1 1 1 
1 1 1 1 1 1 1 1 1 
1 1 1 1 1 1 1 1 1 
1 1 1 1 1 1 1 1 1 
1 1 1 1 1 1 1 1 1 
1 1 1 1 1 1 1 1 1 
1 1 1 1 1 1 1 1 1 
1 1 1 1 1 1 1 1 1 
1 1 1 1 1 1 1 1 1 
1 1 1 1 1 1 1 1 1 
1 1 1 1 1 1 1 1 1 
1 1 1 1 1 1 1 1 1 
1 1 1 1 1 1 1 1 1 
1 1 1 1 1 1 1 1 1 
1 1 1 1 1 1 1 1 1 
1 1 1 1 1 1 1 1 1 
1 1 1 1 1 1 1 1 1 
1 1 1 1 1 1 1 1 1 
1 1 1 1 1 1 1 1 1 
1 1 1 1 1 1 1 1 1 
1 1 1 1 1 1 1 1 1 
1 1 1 1 1 1 1 1 1 
1 1 1 1 1 1 1 1 1 
1 1 1 1 1 1 1 1 1 
1 1 1 1 1 1 1 1 1 
1 1 1 1 1 1 1 1 1 
1 1 1 1 1 1 1 1 1 
1 1 1 1 1 1 1 1 1 
1 1 1 1 1 1 1 1 1 
1 1 1 1 1 1 1 1 1 
1 1 1 1 1 1 1 1 1 
1 1 1 1 1 1 1 1 1 
1 1 1 1 1 1 1 1 1 
1 1 1 1 1 1 1 1 1 
1 1 1 1 1 1 1 1 1 
1 1 1 1 1 1 1 1 1 
1 1 1 1 1 1 1 1 1 
1 1 1 1 1 1 1 1 1 
1 1 1 1 1 1 1 1 1 
1 1 1 1 1 1 1 1 1 
1 1 1 1 1 1 1 1 1 
1 1 1 1 1 1 1 1 1 
1 1 1 1 1 1 1 1 1 
1 1 1 1 1 1 1 1 1 
1 1 1 1 1 1 1 1 1 
1 1 1 1 1 1 1 1 1 
1 1 1 1 1 1 1 1 1 
1 1 1 1 1 1 1 1 1 
1 1 1 1 1 1 1 1 1 
1 1 1 1 1 1 1 1 1 
1 1 1 1 1 1 1 1 1 
1 1 1 1 1 1 1 1 1 
1 1 1 1 1 1 1 1 1 
1 1 1 1 1 1 1 1 1 
1 1 1 1 1 1 1 1 1 
1 1 1 1 1 1 1 1 1 
1 1 1 1 1 1 1 1 1 
1 1 1 1 1 1 1 1 1 
1 1 1 1 1 1 1 1 1 
1 1 1 1 1 1 1 1 1 
1 1 1 1 1 1 1 1 1 
1 1 1 1 1 1 1 1 1 
1 1 1 1 1 1 1 1 1 
1 1 1 1 1 1 1 1 1 
1 1 1 1 1 1 1 1 1 
1 1 1 1 1 1 1 1 1 
1 1 1 1 1 1 1 1 1 
1 1 1 1 1 1 1 1 1 
1 1 1 1 1 1 1 1 1 
1 1 1 1 1 1 1 1 1 
1 1 1 1 1 1 1 1 1 
1 1 1 1 1 1 1 1 1 
1 1 1 1 1 1 1 1 1 
1 1 1 1 1 1 1 1 1 
1 1 1 1 1 1 1 1 1 
1 1 1 1 1 1 1 1 1 
1 1 1 1 1 1 1 1 1 
1 1 1 1 1 1 1 1 1 
1 1 1 1 1 1 1 1 1 
1 1 1 1 1 1 1 1 1 
1 1 1 1 1 1 1 1 1 
1 1 1 1 1 1 1 1 1 
1 1 1 1 1 1 1 1 1 
1 1 1 1 1 1 1 1 1 
1 1 1 1 1 1 1 1 1 
1 1 1 1 1 1 1 1 1 
1 1 1 1 1 1 1 1 1 
1 1 1 1 1 1 1 1 1 
1 1 1 1 1 1 1 1 1 
1 1 1 1 1 1 1 1 1 
1 1 1 1 1 1 1 1 1 
1 1 1 1 1 1 1 1 1 
1 1 1 1 1 1 1 1 1 
1 1 1 1 1 1 1 1 1 
1 1 1 1 1 1 1 1 1 
1 1 1 1 1 1 1 1 1 
1 1 1 1 1 1 1 1 1 
1 1 1 1 1 1 1 1 1 
1 1 1 1 1 1 1 1 1 
1 1 1 1 1 1 1 1 1 
1 1 1 1 1 1 1 1 1 
1 1 1 1 1 1 1 1 1 
1 1 1 1 1 1 1 1 1 
1 1 1 1 1 1 1 1 1 
1 1 1 1 1 1 1 1 1 
1 1 1 1 1 1 1 1 1 
1 1 1 1 1 1 1 1 1 
1 1 1 1 1 1 1 1 1 
1 1 1 1 1 1 1 1 1 
1 1 1 1 1 1 1 1 1 
1 1 1 1 1 1 1 1 1 
1 1 1 1 1 1 1 1 1 
1 1 1 1 1 1 1 1 1 
1 1 1 1 1 1 1 1 1 
1 1 1 1 1 1 1 1 1 
1 1 1 1 1 1 1 1 1 
1 1 1 1 1 1 1 1 1 
1 1 1 1 1 1 1 1 1 
1 1 1 1 1 1 1 1 1 
1 1 1 1 1 1 1 1 1 
1 1 1 1 1 1 1 1 1 
1 1 1 1 1 1 1 1 1 
1 1 1 1 1 1 1 1 1 
1 1 1 1 1 1 1 1 1 
1 1 1 1 1 1 1 1 1 
1 1 1 1 1 1 1 1 1 
1 1 1 1 1 1 1 1 1 
1 1 1 1 1 1 1 1 1 
1 1 1 1 1 1 1 1 1 
1 1 1 1 1 1 1 1 1 
1 1 1 1 1 1 1 1 1 
1 1 1 1 1 1 1 1 1 
1 1 1 1 1 1 1 1 1 
1 1 1 1 1 1 1 1 1 
1 1 1 1 1 1 1 1 1 
1 1 1 1 1 1 1 1 1 
1 1 1 1 1 1 1 1 1 
1 1 1 1 1 1 1 1 1 
1 1 1 1 1 1 1 1 1 
1 1 1 1 1 1 1 1 1 
1 1 1 1 1 1 1 1 1 
1 1 1 1 1 1 1 1 1 
1 1 1 1 1 1 1 1 1 
1 1 1 1 1 1 1 1 1 
1 1 1 1 1 1 1 1 1 
1 1 1 1 1 1 1 1 1 
1 1 1 1 1 1 1 1 1 
1 1 1 1 1 1 1 1 1 
1 1 1 1 1 1 1 1 1 
1 1 1 1 1 1 1 1 1 
1 1 1 1 1 1 1 1 1 
1 1 1 1 1 1 1 1 1 
1 1 1 1 1 1 1 1 1 
1 1 1 1 1 1 1 1 1 
1 1 1 1 1 1 1 1 1 
1 1 1 1 1 1 1 1 1 
1 1 1 1 1 1 1 1 1 
1 1 1 1 1 1 1 1 1 
1 1 1 1 1 1 1 1 1 
1 1 1 1 1 1 1 1 1 
1 1 1 1 1 1 1 1 1 
1 1 1 1 1 1 1 1 1 
1 1 1 1 1 1 1 1 1 
1 1 1 1 1 1 1 1 1 
1 1 1 1 1 1 1 1 1 
1 1 1 1 1 1 1 1 1 
1 1 1 1 1 1 1 1 1 
1 1 1 1 1 1 1 1 1 
1 1 1 1 1 1 1 1 1 
1 1 1 1 1 1 1 1 1 
1 1 1 1 1 1 1 1 1 
1 1 1 1 1 1 1 1 1 
1 1 1 1 1 1 1 1 1 
1 1 1 1 1 1 1 1 1 
1 1 1 1 1 1 1 1 1 
1 1 1 1 1 1 1 1 1 
1 1 1 1 1 1 1 1 1 
1 1 1 1 1 1 1 1 1 
1 1 1 1 1 1 1 1 1 
1 1 1 1 1 1 1 1 1 
1 1 1 1 1 1 1 1 1 
1 1 1 1 1 1 1 1 1 
1 1 1 1 1 1 1 1 1 
1 1 1 1 1 1 1 1 1 
1 1 1 1 1 1 1 1 1 
1 1 1 1 1 1 1 1 1 
1 1 1 1 1 1 1 1 1 
1 1 1 1 1 1 1 1 1 
1 1 1 1 1 1 1 1 1 
1 1 1 1 1 1 1 1 1 
1 1 1 1 1 1 1 1 1 
1 1 1 1 1 1 1 1 1 
1 1 1 1 1 1 1 1 1 
1 1 1 1 1 1 1 1 1 
1 1 1 1 1 1 1 1 1 
1 1 1 1 1 1 1 1 1 
1 1 1 1 1 1 1 1 1 
1 1 1 1 1 1 1 1 1 
1 1 1 1 1 1 1 1 1 
1 1 1 1 1 1 1 1 1 
1 1 1 1 1 1 1 1 1 
1 1 1 1 1 1 1 1 1 
1 1 1 1 1 1 1 1 1 
1 1 1 1 1 1 1 1 1 
1 1 1 1 1 1 1 1 1 
1 1 1 1 1 1 1 1 1 
1 1 1 1 1 1 1 1 1 
1 1 1 1 1 1 1 1 1 
1 1 1 1 1 1 1 1 1 
1 1 1 1 1 1 1 1 1 
1 1 1 1 1 1 1 1 1 
1 1 1 1 1 1 1 1 1 
1 1 1 1 1 1 1 1 1 
1 1 1 1 1 1 1 1 1 
1 1 1 1 1 1 1 1 1 
1 1 1 1 1 1 1 1 1 
1 1 1 1 1 1 1 1 1 
1 1 1 1 1 1 1 1 1 
1 1 1 1 1 1 1 1 1 
1 1 1 1 1 1 1 1 1 
1 1 1 1 1 1 1 1 1 
1 1 1 1 1 1 1 1 1 
1 1 1 1 1 1 1 1 1 
1 1 1 1 1 1 1 1 1 
1 1 1 1 1 1 1 1 1 
1 1 1 1 1 1 1 1 1 
1 1 1 1 1 1 1 1 1 
1 1 1 1 1 1 1 1 1 
1 1 1 1 1 1 1 1 1 
1 1 1 1 1 1 1 1 1 
1 1 1 1 1 1 1 1 1 
1 1 1 1 1 1 1 1 1 
1 1 1 1 1 1 1 1 1 
1 1 1 1 1 1 1 1 1 
1 1 1 1 1 1 1 1 1 
1 1 1 1 1 1 1 1 1 
1 1 1 1 1 1 1 1 1 
1 1 1 1 1 1 1 1 1 
1 1 1 1 1 1 1 1 1 
1 1 1 1 1 1 1 1 1 
1 1 1 1 1 1 1 1 1 
1 1 1 1 1 1 1 1 1 
1 1 1 1 1 1 1 1 1 
1 1 1 1 1 1 1 1 1 
1 1 1 1 1 1 1 1 1 
1 1 1 1 1 1 1 1 1 
1 1 1 1 1 1 1 1 1 
1 1 1 1 1 1 1 1 1 
1 1 1 1 1 1 1 1 1 
1 1 1 1 1 1 1 1 1 
1 1 1 1 1 1 1 1 1 
1 1 1 1 1 1 1 1 1 
1 1 1 1 1 1 1 1 1 
1 1 1 1 1 1 1 1 1 
1 1 1 1 1 1 1 1 1 
1 1 1 1 1 1 1 1 1 
1 1 1 1 1 1 1 1 1 
1 1 1 1 1 1 1 1 1 
1 1 1 1 1 1 1 1 1 
1 1 1 1 1 1 1 1 1 
1 1 1 1 1 1 1 1 1 
1 1 1 1 1 1 1 1 1 
1 1 1 1 1 1 1 1 1 
1 1 1 1 1 1 1 1 1 
1 1 1 1 1 1 1 1 1 
1 1 1 1 1 1 1 1 1 
1 1 1 1 1 1 1 1 1 
1 1 1 1 1 1 1 1 1 
1 1 1 1 1 1 1 1 1 
1 1 1 1 1 1 1 1 1 
1 1 1 1 1 1 1 1 1 
1 1 1 1 1 1 1 1 1 
1 1 1 1 1 1 1 1 1 
1 1 1 1 1 1 1 1 1 
1 1 1 1 1 1 1 1 1 
1 1 1 1 1 1 1 1 1 
1 1 1 1 1 1 1 1 1 
1 1 1 1 1 1 1 1 1 
1 1 1 1 1 1 1 1 1 
1 1 1 1 1 1 1 1 1 
1 1 1 1 1 1 1 1 1 
1 1 1 1 1 1 1 1 1 
1 1 1 1 1 1 1 1 1 
1 1 1 1 1 1 1 1 1 
1 1 1 1 1 1 1 1 1 
1 1 1 1 1 1 1 1 1 
1 1 1 1 1 1 1 1 1 
1 1 1 1 1 1 1 1 1 
1 1 1 1 1 1 1 1 1 
1 1 1 1 1 1 1 1 1 
1 1 1 1 1 1 1 1 1 
1 1 1 1 1 1 1 1 1 
1 1 1 1 1 1 1 1 1 
1 1 1 1 1 1 1 1 1 
1 1 1 1 1 1 1 1 1 
1 1 1 1 1 1 1 1 1 
1 1 1 1 1 1 1 1 1 
1 1 1 1 1 1 1 1 1 
1 1 1 1 1 1 1 1 1 
1 1 1 1 1 1 1 1 1 
1 1 1 1 1 1 1 1 1 
1 1 1 1 1 1 1 1 1 
1 1 1 1 1 1 1 1 1 
1 1 1 1 1 1 1 1 1 
1 1 1 1 1 1 1 1 1 
1 1 1 1 1 1 1 1 1 
1 1 1 1 1 1 1 1 1 
1 1 1 1 1 1 1 1 1 
1 1 1 1 1 1 1 1 1 
1 1 1 1 1 1 1 1 1 
1 1 1 1 1 1 1 1 1 
1 1 1 1 1 1 1 1 1 
1 1 1 1 1 1 1 1 1 
1 1 1 1 1 1 1 1 1 
1 1 1 1 1 1 1 1 1 
1 1 1 1 1 1 1 1 1 
1 1 1 1 1 1 1 1 1 
1 1 1 1 1 1 1 1 1 
1 1 1 1 1 1 1 1 1 
1 1 1 1 1 1 1 1 1 
1 1 1 1 1 1 1 1 1 
1 1 1 1 1 1 1 1 1 
1 1 1 1 1 1 1 1 1 
1 1 1 1 1 1 1 1 1 
1 1 1 1 1 1 1 1 1 
1 1 1 1 1 1 1 1 1 
1 1 1 1 1 1 1 1 1 
1 1 1 1 1 1 1 1 1 
1 1 1 1 1 1 1 1 1 
1 1 1 1 1 1 1 1 1 
1 1 1 1 1 1 1 1 1 
1 1 1 1 1 1 1 1 1 
1 1 1 1 1 1 1 1 1 
1 1 1 1 1 1 1 1 1 
1 1 1 1 1 1 1 1 1 
1 1 1 1 1 1 1 1 1 
1 1 1 1 1 1 1 1 1 
1 1 1 1 1 1 1 1 1 
1 1 1 1 1 1 1 1 1 
1 1 1 1 1 1 1 1 1 
1 1 1 1 1 1 1 1 1 
1 1 1 1 1 1 1 1 1 
1 1 1 1 1 1 1 1 1 
1 1 1 1 1 1 1 1 1 
1 1 1 1 1 1 1 1 1 
1 1 1 1 1 1 1 1 1 
1 1 1 1 1 1 1 1 1 
1 1 1 1 1 1 1 1 1 
1 1 1 1 1 1 1 1 1 
1 1 1 1 1 1 1 1 1 
1 1 1 1 1 1 1 1 1 
1 1 1 1 1 1 1 1 1 
1 1 1 1 1 1 1 1 1 
1 1 1 1 1 1 1 1 1 
1 1 1 1 1 1 1 1 1 
1 1 1 1 1 1 1 1 1 
1 1 1 1 1 1 1 1 1 
1 1 1 1 1 1 1 1 1 
1 1 1 1 1 1 1 1 1 
1 1 1 1 1 1 1 1 1 
1 1 1 1 1 1 1 1 1 
1 1 1 1 1 1 1 1 1 
1 1 1 1 1 1 1 1 1 
1 1 1 1 1 1 1 1 1 
1 1 1 1 1 1 1 1 1 
1 1 1 1 1 1 1 1 1 
1 1 1 1 1 1 1 1 1 
1 1 1 1 1 1 1 1 1 
1 1 1 1 1 1 1 1 1 
1 1 1 1 1 1 1 1 1 
1 1 1 1 1 1 1 1 1 
1 1 1 1 1 1 1 1 1 
1 1 1 1 1 1 1 1 1 
1 1 1 1 1 1 1 1 1 
1 1 1 1 1 1 1 1 1 
1 1 1 1 1 1 1 1 1 
1 1 1 1 1 1 1 1 1 
1 1 1 1 1 1 1 1 1 
1 1 1 1 1 1 1 1 1 
1 1 1 1 1 1 1 1 1 
1 1 1 1 1 1 1 1 1 
1 1 1 1 1 1 1 1 1 
1 1 1 1 1 1 1 1 1 
1 1 1 1 1 1 1 1 1 
1 1 1 1 1 1 1 1 1 
1 1 1 1 1 1 1 1 1 
1 1 1 1 1 1 1 1 1 
1 1 1 1 1 1 1 1 1 
1 1 1 1 1 1 1 1 1 
1 1 1 1 1 1 1 1 1 
1 1 1 1 1 1 1 1 1 
1 1 1 1 1 1 1 1 1 
1 1 1 1 1 1 1 1 1 
1 1 1 1 1 1 1 1 1 
1 1 1 1 1 1 1 1 1 
1 1 1 1 1 1 1 1 1 
1 1 1 1 1 1 1 1 1 
1 1 1 1 1 1 1 1 1 
1 1 1 1 1 1 1 1 1 
1 1 1 1 1 1 1 1 1 
1 1 1 1 1 1 1 1 1 
1 1 1 1 1 1 1 1 1 
1 1 1 1 1 1 1 1 1 
1 1 1 1 1 1 1 1 1 
1 1 1 1 1 1 1 1 1 
1 1 1 1 1 1 1 1 1 
1 1 1 1 1 1 1 1 1 
1 1 1 1 1 1 1 1 1 
1 1 1 1 1 1 1 1 1 
1 1 1 1 1 1 1 1 1 
1 1 1 1 1 1 1 1 1 
1 1 1 1 1 1 1 1 1 
1 1 1 1 1 1 1 1 1 
1 1 1 1 1 1 1 1 1 
1 1 1 1 1 1 1 1 1 
1 1 1 1 1 1 1 1 1 
1 1 1 1 1 1 1 1 1 
1 1 1 1 1 1 1 1 1 
1 1 1 1 1 1 1 1 1 
1 1 1 1 1 1 1 1 1 
1 1 1 1 1 1 1 1 1 
1 1 1 1 1 1 1 1 1 
1 1 1 1 1 1 1 1 1 
1 1 1 1 1 1 1 1 1 
1 1 1 1 1 1 1 1 1 
1 1 1 1 1 1 1 1 1 
1 1 1 1 1 1 1 1 1 
1 1 1 1 1 1 1 1 1 
1 1 1 1 1 1 1 1 1 
1 1 1 1 1 1 1 1 1 
1 1 1 1 1 1 1 1 1 
1 1 1 1 1 1 1 1 1 
1 1 1 1 1 1 1 1 1 
1 1 1 1 1 1 1 1 1 
1 1 1 1 1 1 1 1 1 
1 1 1 1 1 1 1 1 1 
1 1 1 1 1 1 1 1 1 
1 1 1 1 1 1 1 1 1 
1 1 1 1 1 1 1 1 1 
1 1 1 1 1 1 1 1 1 
1 1 1 1 1 1 1 1 1 
1 1 1 1 1 1 1 1 1 
1 1 1 1 1 1 1 1 1 
1 1 1 1 1 1 1 1 1 
1 1 1 1 1 1 1 1 1 
1 1 1 1 1 1 1 1 1 
1 1 1 1 1 1 1 1 1 
1 1 1 1 1 1 1 1 1 
1 1 1 1 1 1 1 1 1 
1 1 1 1 1 1 1 1 1 
1 1 1 1 1 1 1 1 1 
1 1 1 1 1 1 1 1 1 
1 1 1 1 1 1 1 1 1 
1 1 1 1 1 1 1 1 1 
1 1 1 1 1 1 1 1 1 
1 1 1 1 1 1 1 1 1 
1 1 1 1 1 1 1 1 1 
1 1 1 1 1 1 1 1 1 
1 1 1 1 1 1 1 1 1 
1 1 1 1 1 1 1 1 1 
1 1 1 1 1 1 1 1 1 
1 1 1 1 1 1 1 1 1 
1 1 1 1 1 1 1 1 1 
1 1 1 1 1 1 1 1 1 
1 1 1 1 1 1 1 1 1 
1 1 1 1 1 1 1 1 1 
1 1 1 1 1 1 1 1 1 
1 1 1 1 1 1 1 1 1 
1 1 1 1 1 1 1 1 1 
1 1 1 1 1 1 1 1 1 
1 1 1 1 1 1 1 1 1 
1 1 1 1 1 1 1 1 1 
1 1 1 1 1 1 1 1 1 
1 1 1 1 1 1 1 1 1 
1 1 1 1 1 1 1 1 1 
1 1 1 1 1 1 1 1 1 
1 1 1 1 1 1 1 1 1 
1 1 1 1 1 1 1 1 1 
1 1 1 1 1 1 1 1 1 
1 1 1 1 1 1 1 1 1 
1 1 1 1 1 1 1 1 1 
1 1 1 1 1 1 1 1 1 
1 1 1 1 1 1 1 1 1 
1 1 1 1 1 1 1 1 1 
1 1 1 1 1 1 1 1 1 
1 1 1 1 1 1 1 1 1 
1 1 1 1 1 1 1 1 1 
1 1 1 1 1 1 1 1 1 
1 1 1 1 1 1 1 1 1 
1 1 1 1 1 1 1 1 1 
1 1 1 1 1 1 1 1 1 
1 1 1 1 1 1 1 1 1 
1 1 1 1 1 1 1 1 1 
1 1 1 1 1 1 1 1 1 
1 1 1 1 1 1 1 1 1 
1 1 1 1 1 1 1 1 1 
1 1 1 1 1 1 1 1 1 
1 1 1 1 1 1 1 1 1 
1 1 1 1 1 1 1 1 1 
1 1 1 1 1 1 1 1 1 
1 1 1 1 1 1 1 1 1 
1 1 1 1 1 1 1 1 1 
1 1 1 1 1 1 1 1 1 
1 1 1 1 1 1 1 1 1 
1 1 1 1 1 1 1 1 1 
1 1 1 1 1 1 1 1 1 
1 1 1 1 1 1 1 1 1 
1 1 1 1 1 1 1 1 1 
1 1 1 1 1 1 1 1 1 
1 1 1 1 1 1 1 1 1 
1 1 1 1 1 1 1 1 1 
1 1 1 1 1 1 1 1 1 
1 1 1 1 1 1 1 1 1 
1 1 1 1 1 1 1 1 1 
1 1 1 1 1 1 1 1 1 
1 1 1 1 1 1 1 1 1 
1 1 1 1 1 1 1 1 1 
1 1 1 1 1 1 1 1 1 
1 1 1 1 1 1 1 1 1 
1 1 1 1 1 1 1 1 1 
1 1 1 1 1 1 1 1 1 
1 1 1 1 1 1 1 1 1 
1 1 1 1 1 1 1 1 1 
1 1 1 1 1 1 1 1 1 
1 1 1 1 1 1 1 1 1 
1 1 1 1 1 1 1 1 1 
1 1 1 1 1 1 1 1 1 
1 1 1 1 1 1 1 1 1 
1 1 1 1 1 1 1 1 1 
1 1 1 1 1 1 1 1 1 
1 1 1 1 1 1 1 1 1 
1 1 1 1 1 1 1 1 1 
1 1 1 1 1 1 1 1 1 
1 1 1 1 1 1 1 1 1 
1 1 1 1 1 1 1 1 1 
1 1 1 1 1 1 1 1 1 
1 1 1 1 1 1 1 1 1 
1 1 1 1 1 1 1 1 1 
1 1 1 1 1 1 1 1 1 
1 1 1 1 1 1 1 1 1 
1 1 1 1 1 1 1 1 1 
1 1 1 1 1 1 1 1 1 
1 1 1 1 1 1 1 1 1 
1 1 1 1 1 1 1 1 1 
1 1 1 1 1 1 1 1 1 
1 1 1 1 1 1 1 1 1 
1 1 1 1 1 1 1 1 1 
1 1 1 1 1 1 1 1 1 
1 1 1 1 1 1 1 1 1 
1 1 1 1 1 1 1 1 1 
1 1 1 1 1 1 1 1 1 
1 1 1 1 1 1 1 1 1 
1 1 1 1 1 1 1 1 1 
1 1 1 1 1 1 1 1 1 
1 1 1 1 1 1 1 1 1 
1 1 1 1 1 1 1 1 1 
1 1 1 1 1 1 1 1 1 
1 1 1 1 1 1 1 1 1 
1 1 1 1 1 1 1 1 1 
1 1 1 1 1 1 1 1 1 
1 1 1 1 1 1 1 1 1 
1 1 1 1 1 1 1 1 1 
1 1 1 1 1 1 1 1 1 
1 1 1 1 1 1 1 1 1 
1 1 1 1 1 1 1 1 1 
1 1 1 1 1 1 1 1 1 
1 1 1 1 1 1 1 1 1 
1 1 1 1 1 1 1 1 1 
1 1 1 1 1 1 1 1 1 
1 1 1 1 1 1 1 1 1 
1 1 1 1 1 1 1 1 1 
1 1 1 1 1 1 1 1 1 
1 1 1 1 1 1 1 1 1 
1 1 1 1 1 1 1 1 1 
1 1 1 1 1 1 1 1 1 
1 1 1 1 1 1 1 1 1 
1 1 1 1 1 1 1 1 1 
1 1 1 1 1 1 1 1 1 
1 1 1 1 1 1 1 1 1 
1 1 1 1 1 1 1 1 1 
1 1 1 1 1 1 1 1 1 
1 1 1 1 1 1 1 1 1 
1 1 1 1 1 1 1 1 1 
1 1 1 1 1 1 1 1 1 
1 1 1 1 1 1 1 1 1 
1 1 1 1 1 1 1 1 1 
1 1 1 1 1 1 1 1 1 
1 1 1 1 1 1 1 1 1 
1 1 1 1 1 1 1 1 1 
1 1 1 1 1 1 1 1 1 
1 1 1 1 1 1 1 1 1 
1 1 1 1 1 1 1 1 1 
1 1 1 1 1 1 1 1 1 
1 1 1 1 1 1 1 1 1 
1 1 1 1 1 1 1 1 1 
1 1 1 1 1 1 1 1 1 
1 1 1 1 1 1 1 1 1 
1 1 1 1 1 1 1 1 1 
1 1 1 1 1 1 1 1 1 
1 1 1 1 1 1 1 1 1 
1 1 1 1 1 1 1 1 1 
1 1 1 1 1 1 1 1 1 
1 1 1 1 1 1 1 1 1 
1 1 1 1 1 1 1 1 1 
1 1 1 1 1 1 1 1 1 
1 1 1 1 1 1 1 1 1 
1 1 1 1 1 1 1 1 1 
1 1 1 1 1 1 1 1 1 
1 1 1 1 1 1 1 1 1 
1 1 1 1 1 1 1 1 1 
1 1 1 1 1 1 1 1 1 
1 1 1 1 1 1 1 1 1 
1 1 1 1 1 1 1 1 1 
1 1 1 1 1 1 1 1 1 
1 1 1 1 1 1 1 1 1 
1 1 1 1 1 1 1 1 1 
1 1 1 1 1 1 1 1 1 
1 1 1 1 1 1 1 1 1 
1 1 1 1 1 1 1 1 1 
1 1 1 1 1 1 1 1 1 
1 1 1 1 1 1 1 1 1 
1 1 1 1 1 1 1 1 1 
1 1 1 1 1 1 1 1 1 
1 1 1 1 1 1 1 1 1 
1 1 1 1 1 1 1 1 1 
1 1 1 1 1 1 1 1 1 
1 1 1 1 1 1 1 1 1 
1 1 1 1 1 1 1 1 1 
1 1 1 1 1 1 1 1 1 
1 1 1 1 1 1 1 1 1 
1 1 1 1 1 1 1 1 1 
1 1 1 1 1 1 1 1 1 
1 1 1 1 1 1 1 1 1 
1 1 1 1 1 1 1 1 1 
1 1 1 1 1 1 1 1 1 
1 1 1 1 1 1 1 1 1 
1 1 1 1 1 1 1 1 1 
1 1 1 1 1 1 1 1 1 
1 1 1 1 1 1 1 1 1 
1 1 1 1 1 1 1 1 1 
1 1 1 1 1 1 1 1 1 
1 1 1 1 1 1 1 1 1 
1 1 1 1 1 1 1 1 1 
1 1 1 1 1 1 1 1 1 
1 1 1 1 1 1 1 1 1 
1 1 1 1 1 1 1 1 1 
1 1 1 1 1 1 1 1 1 
1 1 1 1 1 1 1 1 1 
1 1 1 1 1 1 1 1 1 
1 1 1 1 1 1 1 1 1 
1 1 1 1 1 1 1 1 1 
1 1 1 1 1 1 1 1 1 
1 1 1 1 1 1 1 1 1 
1 1 1 1 1 1 1 1 1 
1 1 1 1 1 1 1 1 1 
1 1 1 1 1 1 1 1 1 
1 1 1 1 1 1 1 1 1 
1 1 1 1 1 1 1 1 1 
1 1 1 1 1 1 1 1 1 
1 1 1 1 1 1 1 1 1 
1 1 1 1 1 1 1 1 1 
1 1 1 1 1 1 1 1 1 
1 1 1 1 1 1 1 1 1 
1 1 1 1 1 1 1 1 1 
1 1 1 1 1 1 1 1 1 
1 1 1 1 1 1 1 1 1 
1 1 1 1 1 1 1 1 1 
1 1 1 1 1 1 1 1 1 
1 1 1 1 1 1 1 1 1 
1 1 1 1 1 1 1 1 1 
1 1 1 1 1 1 1 1 1 
1 1 1 1 1 1 1 1 1 
1 1 1 1 1 1 1 1 1 
1 1 1 1 1 1 1 1 1 
1 1 1 1 1 1 1 1 1 
1 1 1 1 1 1 1 1 1 
1 1 1 1 1 1 1 1 1 
1 1 1 1 1 1 1 1 1 
1 1 1 1 1 1 1 1 
NORMALS normals float
-0.0096145 -0.0096145 -0.999908 -0.00679895 -0.70709 -0.70709 -0.57735 -0.57735 -0.57735 
0.0096145 -0.0096145 -0.999908 0.00679895 -0.70709 -0.70709 0.999908 -0.0096145 -0.0096145 
-0.0096145 -0.0096145 -0.999908 -0.57735 -0.57735 -0.57735 -0.57735 -0.57735 -0.57735 
0 0 -1 0.00961494 0 -0.999954 0.579201 -0.573631 -0.579201 
-0.0096145 -0.0096145 -0.999908 -0.57735 -0.57735 -0.57735 -0.57735 -0.57735 -0.57735 
0 0 -1 0 0 -1 0 0 -1 
0.573631 -0.579201 -0.579201 0 -0.00961494 -0.999954 0 -0.00961494 -0.999954 
0 -0.707107 -0.707107 0 -0.00961494 -0.999954 0 -0.707107 -0.707107 
0 -0.00961494 -0.999954 0 -0.707107 -0.707107 0 -0.00961494 -0.999954 
0 -0.707107 -0.707107 0 -0.00961494 -0.999954 0 -0.707107 -0.707107 
0 -0.00961494 -0.999954 0 -0.707107 -0.707107 0.0096145 -0.0096145 -0.999908 
0.00679895 -0.70709 -0.70709 0.999908 -0.0096145 -0.0096145 -0.0096145 -0.0096145 -0.999908 
-0.57735 -0.57735 -0.57735 -0.57735 -0.57735 -0.57735 0 0 -1 
0 0 -1 0 0 -1 0 0 -1 
0 0 -1 0 0 -1 0 0 -1 
0 0 -1 0 0 -1 0 0 -1 
0 0 -1 0.00961494 0 -0.999954 0.999954 0 -0.00961494 
-0.0096145 -0.0096145 -0.999908 -0.57735 -0.57735 -0.57735 -0.57735 -0.57735 -0.57735 
0 0 -1 0 0 -1 0 0 -1 
0 0 -1 0 0 -1 0 0 -1 
0 0 -1 0 0 -1 0 0 -1 
0 0 -1 0 0 -1 0 0 -1 
0.00961494 0 -0.999954 0.999954 0 -0.00961494 -0.0096145 -0.0096145 -0.999908 
-0.57735 -0.57735 -0.57735 -0.57735 -0.57735 -0.57735 0 0 -1 
0 0 -1 0 0 -1 0 0 -1 
0 0 -1 0 0 -1 0 0 -1 
0 0 -1 0 0 -1 0 0 -1 
0 0 -1 0 0 -1 0 0 -1 
0.00961494 0 -0.999954 0.579201 -0.573631 -0.579201 -0.0096145 -0.0096145 -0.999908 
-0.57735 -0.57735 -0.57735 -0.57735 -0.57735 -0.57735 0 0 -1 
0 0 -1 0 0 -1 0 0 -1 
0 0 -1 0 0 -1 0 0 -1 
0 0 -1 0 0 -1 0 0 -1 
0 0 -1 0 0 -1 0 0 -1 
0 0 -1 0 0 -1 0.573631 -0.579201 -0.579201 
0 -0.00961494 -0.999954 0.0096145 -0.0096145 -0.999908 0.00679895 -0.70709 -0.70709 
0.999908 -0.0096145 -0.0096145 -0.0096145 -0.0096145 -0.999908 -0.57735 -0.57735 -0.57735 
-0.57735 -0.57735 -0.57735 0 0 -1 0 0 -1 
0 0 -1 0 0 -1 0 0 -1 
0 0 -1 0 0 -1 0 0 -1 
0 0 -1 0 0 -1 0 0 -1 
0 0 -1 0 0 -1 0 0 -1 
0 0 -1 0 0 -1 0 0 -1 
0.00961494 0 -0.999954 0.999954 0 -0.00961494 -0.0096145 -0.0096145 -0.999908 
-0.57735 -0.57735 -0.57735 -0.70709 -0.00679895 -0.70709 0 0 -1 
0 0 -1 0 0 -1 0 0 -1 
0 0 -1 0 0 -1 0 0 -1 
0 0 -1 0 0 -1 0 0 -1 
0 0 -1 0 0 -1 0 0 -1 
0 0 -1 0 0 -1 0 0 -1 
0 0 -1 0 0 -1 0.00961494 0 -0.999954 
0.999954 0 -0.00961494 -0.00961494 0 -0.999954 -0.707107 0 -0.707107 
0 0 -1 0 0 -1 0 0 -1 
0 0 -1 0 0 -1 0 0 -1 
0 0 -1 0 0 -1 0 0 -1 
0 0 -1 0 0 -1 0 0 -1 
0 0 -1 0 0 -1 0 0 -1 
0 0 -1 0 0 -1 0 0 -1 
0.00961494 0 -0.999954 0.999954 0 -0.00961494 -0.00961494 0 -0.999954 
-0.707107 0 -0.707107 0 0 -1 0 0 -1 
0 0 -1 0 0 -1 0 0 -1 
0 0 -1 0 0 -1 0 0 -1 
0 0 -1 0 0 -1 0 0 -1 
0 0 -1 0 0 -1 0 0 -1 
0 0 -1 0 0 -1 0 0 -1 
0 0 -1 0.00961494 0 -0.999954 0.999954 0 -0.00961494 
-0.00961494 0 -0.999954 -0.707107 0 -0.707107 0 0 -1 
0 0 -1 0 0 -1 0 0 -1 
0 0 -1 0 0 -1 0 0 -1 
0 0 -1 0 0 -1 0 0 -1 
0 0 -1 0 0 -1 0 0 -1 
0 0 -1 0 0 -1 0 0 -1 
0 0 -1 0 0 -1 0.00961494 0 -0.999954 
0.999954 0 -0.00961494 -0.00961494 0 -0.999954 -0.707107 0 -0.707107 
0 0 -1 0 0 -1 0 0 -1 
0 0 -1 0 0 -1 0 0 -1 
0 0 -1 0 0 -1 0 0 -1 
0 0 -1 0 0 -1 0 0 -1 
0 0 -1 0 0 -1 0 0 -1 
0 0 -1 0 0 -1 0 0 -1 
0.0096145 0.0096145 -0.999908 0.999908 0.0096145 -0.0096145 -0.0096145 0.0096145 -0.999908 
-0.70709 0.00679895 -0.70709 0 0.00961494 -0.999954 0 0.00961494 -0.999954 
0 0.00961494 -0.999954 0 0.00961494 -0.999954 0 0.00961494 -0.999954 
0 0 -1 0 0 -1 0 0 -1 
0 0 -1 0 0 -1 0 0 -1 
0 0 -1 0 0 -1 0 0 -1 
0 0 -1 0 0 -1 0 0 -1 
0.0096145 0.0096145 -0.999908 0.57735 0.57735 -0.57735 0.57735 0.57735 -0.57735 
-0.0096145 0.999908 -0.0096145 0 0.999954 -0.00961494 0 0.999954 -0.00961494 
0 0.999954 -0.00961494 0 0.999954 -0.00961494 -0.573631 0.579201 -0.579201 
-0.579201 0.573631 -0.579201 -0.00961494 0 -0.999954 0 0 -1 
0 0 -1 0 0 -1 0 0 -1 
0 0 -1 0 0 -1 0 0 -1 
0 0 -1 0 0 -1 0 0 -1 
0.0096145 0.0096145 -0.999908 0.70709 0.70709 -0.00679895 0.70709 0.70709 -0.00679895 
-0.0096145 0.0096145 -0.999908 -0.70709 0.00679895 -0.70709 0 0.00961494 -0.999954 
0 0.00961494 -0.999954 0 0.00961494 -0.999954 0 0.00961494 -0.999954 
0 0.00961494 -0.999954 0 0.00961494 -0.999954 0 0.00961494 -0.999954 
0 0.00961494 -0.999954 0 0.00961494 -0.999954 0.0096145 0.0096145 -0.999908 
0.57735 0.57735 -0.57735 0.57735 0.57735 -0.57735 -0.0096145 0.999908 -0.0096145 
0 0.999954 -0.00961494 0 0.999954 -0.00961494 0 0.999954 -0.00961494 
0 0.999954 -0.00961494 0 0.999954 -0.00961494 0 0.999954 -0.00961494 
0 0.999954 -0.00961494 0 0.999954 -0.00961494 0 0.999954 -0.00961494 
0.0096145 0.999908 -0.0096145 -0.0096145 -0.0096145 -0.999908 -0.00679895 -0.70709 -0.70709 
-0.70709 -0.00679895 -0.70709 0 -0.707107 -0.707107 0 -0.707107 -0.707107 
0.00679895 -0.70709 -0.70709 0.00679895 -0.70709 -0.70709 0.70709 -0.00679895 -0.70709 
-0.579201 -0.573631 -0.579201 -0.579201 -0.573631 -0.579201 0.581069 -0.575482 -0.575482 
-0.0096145 -0.0096145 -0.999908 -0.00679895 -0.70709 -0.70709 -0.70709 -0.00679895 -0.70709 
-0.573631 -0.579201 -0.579201 -0.573631 -0.579201 -0.579201 0.573631 -0.579201 -0.579201 
0.573631 -0.579201 -0.579201 0 -0.707107 -0.707107 0 -0.707107 -0.707107 
0 -0.707107 -0.707107 0 -0.707107 -0.707107 0 -0.707107 -0.707107 
0 -0.707107 -0.707107 0 -0.707107 -0.707107 0 -0.707107 -0.707107 
0 -0.707107 -0.707107 0 -0.707107 -0.707107 0 -0.707107 -0.707107 
0 -0.707107 -0.707107 0.00679895 -0.70709 -0.70709 0.00679895 -0.70709 -0.70709 
0.70709 -0.00679895 -0.70709 -0.579201 -0.573631 -0.579201 -0.579201 -0.573631 -0.579201 
0.710514 0 -0.703683 -0.0096145 -0.0096145 -0.999908 -0.00679895 -0.70709 -0.70709 
-0.70709 -0.00679895 -0.70709 -0.573631 -0.579201 -0.579201 -0.573631 -0.579201 -0.579201 
0.710514 0 -0.703683 -0.579201 -0.573631 -0.579201 -0.579201 -0.573631 -0.579201 
0.581069 -0.575482 -0.575482 -0.0096145 -0.0096145 -0.999908 -0.00679895 -0.70709 -0.70709 
-0.70709 -0.00679895 -0.70709 -0.573631 -0.579201 -0.579201 -0.573631 -0.579201 -0.579201 
0.573631 -0.579201 -0.579201 0.573631 -0.579201 -0.579201 0.00679895 -0.70709 -0.70709 
0.00679895 -0.70709 -0.70709 0.70709 -0.00679895 -0.70709 -0.579201 -0.573631 -0.579201 