# vtk DataFile Version 3.0
vtk output
ASCII
DATASET POLYDATA
POINTS 1588 float
65 121 64.0133 65 120.013 65 64.0133 121 65 
66 121 64.0133 66 120.013 65 66.9867 121 65 
65 121.987 65 65.0133 122 65 66 122 64.0133 
66.9867 122 65 66 122.987 65 68 127 64.0133 
68 126.013 65 67.0133 127 65 69 127 64.0133 
69 126.013 65 70 127 64.0133 70 126.013 65 
70.9867 127 65 68 127.987 65 69 127.987 65 
69.0133 128 65 70 128 64.0133 70.9867 128 65 
70 128.987 65 71 128.013 65 70.0133 129 65 
71 129 64.0133 72 129 64.0133 72 128.013 65 
73 129 64.0133 73 128.013 65 74 129 64.0133 
74 128.013 65 74.9867 129 65 71 129.987 65 
72 129.987 65 73 129.987 65 73.0133 130 65 
74 130 64.0133 74.9867 130 65 74 130.987 65 
75 130.013 65 74.0133 131 65 75 131 64.0133 
76 131 64.0133 76 130.013 65 77 131 64.0133 
77 130.013 65 78 131 64.0133 78 130.013 65 
78.9867 131 65 75 131.987 65 76 131.987 65 
77 131.987 65 77.0133 132 65 78 132 64.0133 
78.9867 132 65 78 132.987 65 63 116 65.0133 
63 115.013 66 62.0133 116 66 64 116 65.0133 
64 115.013 66 65 116 65.0133 65 115.013 66 
66 116 65.0133 66 115.013 66 66.9867 116 66 
63 117 65.0133 62.0133 117 66 64 117 65.0133 
65 117 65.0133 66 117 65.0133 66.9867 117 66 
63 117.987 66 64 117.987 66 64.0133 118 66 
65 118 65.0133 66 118 65.0133 67 117.013 66 
67 118 65.0133 68 118 65.0133 68 117.013 66 
68.9867 118 66 65 119 65.0133 64.0133 119 66 
66 119 65.0133 67 119 65.0133 68 119 65.0133 
68.9867 119 66 65 120 65.0133 64.0133 120 66 
66 120 65.0133 67 120 65.0133 68 120 65.0133 
69 119.013 66 69 120 65.0133 70 120 65.0133 
70 119.013 66 71 120 65.0133 71 119.013 66 
72 120 65.0133 72 119.013 66 72.9867 120 66 
64.0133 121 66 67 121 65.0133 68 121 65.0133 
69 121 65.0133 70 121 65.0133 71 121 65.0133 
72 121 65.0133 72.9867 121 66 65 122 65.0133 
64.0133 122 66 67 122 65.0133 68 122 65.0133 
69 122 65.0133 70 122 65.0133 71 122 65.0133 
72 122 65.0133 73 121.013 66 73 122 65.0133 
74 122 65.0133 74 121.013 66 74.9867 122 66 
65 123 65.0133 64.0133 123 66 66 123 65.0133 
67 123 65.0133 68 123 65.0133 69 123 65.0133 
70 123 65.0133 71 123 65.0133 72 123 65.0133 
73 123 65.0133 74 123 65.0133 74.9867 123 66 
65 123.987 66 66 123.987 66 66.0133 124 66 
67 124 65.0133 68 124 65.0133 69 124 65.0133 
70 124 65.0133 71 124 65.0133 72 124 65.0133 
73 124 65.0133 74 124 65.0133 75 123.013 66 
75 124 65.0133 76 124 65.0133 76 123.013 66 
76.9867 124 66 67 125 65.0133 66.0133 125 66 
68 125 65.0133 69 125 65.0133 70 125 65.0133 
71 125 65.0133 72 125 65.0133 73 125 65.0133 
74 125 65.0133 75 125 65.0133 76 125 65.0133 
76.9867 125 66 67 126 65.0133 66.0133 126 66 
68 126 65.0133 69 126 65.0133 70 126 65.0133 
71 126 65.0133 72 126 65.0133 73 126 65.0133 
74 126 65.0133 75 126 65.0133 76 126 65.0133 
77 125.013 66 77 126 65.0133 78 126 65.0133 
78 125.013 66 79 126 65.0133 79 125.013 66 
80 126 65.0133 80 125.013 66 80.9867 126 66 
67 127 65.0133 66.0133 127 66 71 127 65.0133 
72 127 65.0133 73 127 65.0133 74 127 65.0133 
75 127 65.0133 76 127 65.0133 77 127 65.0133 
78 127 65.0133 79 127 65.0133 80 127 65.0133 
80.9867 127 66 67 127.987 66 68 127.987 66 
69 128 65.0133 68.0133 128 66 71 128 65.0133 
72 128 65.0133 73 128 65.0133 74 128 65.0133 
75 128 65.0133 76 128 65.0133 77 128 65.0133 
78 128 65.0133 79 128 65.0133 80 128 65.0133 
81 127.013 66 81 128 65.0133 82 128 65.0133 
82 127.013 66 82.9867 128 66 69 129 65.0133 
68.0133 129 66 70 129 65.0133 75 129 65.0133 
76 129 65.0133 77 129 65.0133 78 129 65.0133 
79 129 65.0133 80 129 65.0133 81 129 65.0133 
81.9867 129 66 82 128.987 66 69 129.987 66 
70 129.987 66 71 130 65.0133 70.0133 130 66 
72 130 65.0133 73 130 65.0133 75 130 65.0133 
76 130 65.0133 77 130 65.0133 78 130 65.0133 
79 130 65.0133 80 130 65.0133 80.9867 130 66 
81 129.987 66 71 131 65.0133 70.0133 131 66 
72 131 65.0133 73 131 65.0133 74 131 65.0133 
79 131 65.0133 80 131 65.0133 80.9867 131 66 
71 131.987 66 72 131.987 66 73 131.987 66 
74 131.987 66 75 132 65.0133 74.0133 132 66 
76 132 65.0133 77 132 65.0133 79 132 65.0133 
80 132 65.0133 80.9867 132 66 75 133 65.0133 
74.0133 133 66 76 133 65.0133 77 133 65.0133 
78 133 65.0133 79 133 65.0133 80 133 65.0133 
80.9867 133 66 75 133.987 66 76 133.987 66 
76.0133 134 66 77 134 65.0133 78 134 65.0133 
78.9867 134 66 79 133.987 66 80 133.987 66 
77 135 65.0133 76.0133 135 66 77.9867 135 66 
78 134.987 66 77 135.987 66 63 115 66.0133 
63 114.013 67 62.0133 115 67 64 115 66.0133 
64 114.013 67 65 115 66.0133 65 114.013 67 
65.9867 115 67 62.0133 116 67 66 115.013 67 
66.9867 116 67 62.0133 117 67 67 116.013 67 
67 117 66.0133 67.9867 117 67 63 117.987 67 
64 118 66.0133 63.0133 118 67 68 117.013 67 
68.9867 118 67 64 119 66.0133 63.0133 119 67 
69 118.013 67 69 119 66.0133 70 119 66.0133 
70 118.013 67 71 119 66.0133 71 118.013 67 
71.9867 119 67 64 120 66.0133 63.0133 120 67 
72 119.013 67 72.9867 120 67 64 121 66.0133 
63.0133 121 67 72.9867 121 67 64 121.987 67 
64.0133 122 67 73 121.013 67 74 121.013 67 
74.9867 122 67 64.0133 123 67 74.9867 123 67 
65 123.987 67 66 124 66.0133 65.0133 124 67 
75 123.013 67 76 123.013 67 76.9867 124 67 
66 125 66.0133 65.0133 125 67 76.9867 125 67 
66 126 66.0133 65.0133 126 67 77 125.013 67 
78 125.013 67 79 125.013 67 80 125.013 67 
80.9867 126 67 66 126.987 67 66.0133 127 67 
80.9867 127 67 67 127.987 67 68 128 66.0133 
67.0133 128 67 81 127.013 67 82 127.013 67 
82.9867 128 67 68 128.987 67 68.0133 129 67 
81.9867 129 67 82 128.987 67 69 129.987 67 
70 130 66.0133 69.0133 130 67 80.9867 130 67 
81 129.987 67 70 130.987 67 70.0133 131 67 
80.9867 131 67 71 131.987 67 72 131.987 67 
73 131.987 67 74 132 66.0133 73.0133 132 67 
80.9867 132 67 74 132.987 67 74.0133 133 67 
80.9867 133 67 75 133.987 67 76 134 66.0133 
75.0133 134 67 78.9867 134 67 79 133.987 67 
80 133.987 67 76 134.987 67 76.0133 135 67 
77.9867 135 67 78 134.987 67 77 135.987 67 
63 112 67.0133 63 111.013 68 62.0133 112 68 
64 112 67.0133 64 111.013 68 64.9867 112 68 
62 113 67.0133 62 112.013 68 61.0133 113 68 
63 113 67.0133 64 113 67.0133 64.9867 113 68 
62 113.987 68 62.0133 114 68 63 114 67.0133 
64 114 67.0133 65 113.013 68 65 114 67.0133 
66 114 67.0133 66 113.013 68 66.9867 114 68 
62.0133 115 68 66 115 67.0133 66.9867 115 68 
62.0133 116 68 67 116 67.0133 67 115.013 68 
68 116 67.0133 68 115.013 68 68.9867 116 68 
62.0133 117 68 68 117 67.0133 68.9867 117 68 
63 118 67.0133 62.0133 118 68 69 118 67.0133 
69 117.013 68 70 118 67.0133 70 117.013 68 
71 118 67.0133 71 117.013 68 72 118 67.0133 
72 117.013 68 72.9867 118 68 63 119 67.0133 
62.0133 119 68 72 119 67.0133 72.9867 119 68 
63 120 67.0133 62.0133 120 68 72.9867 120 68 
63 121 67.0133 62.0133 121 68 72.9867 121 68 
63 121.987 68 64 121.987 68 64.0133 122 68 
73 121.013 68 74 121.013 68 74.9867 122 68 
64.0133 123 68 74.9867 123 68 65 124 67.0133 
64.0133 124 68 75 123.013 68 76 123.013 68 
76.9867 124 68 65 125 67.0133 64.0133 125 68 
76.9867 125 68 65 126 67.0133 64.0133 126 68 
77 125.013 68 78 125.013 68 79 125.013 68 
80 125.013 68 80.9867 126 68 65 127 67.0133 
64.0133 127 68 66 127 67.0133 80.9867 127 68 
65 127.987 68 66 127.987 68 67 128 67.0133 
66.0133 128 68 81 127.013 68 82 127.013 68 
82.9867 128 68 67 129 67.0133 66.0133 129 68 
68 129 67.0133 81.9867 129 68 82 128.987 68 
67 129.987 68 68 129.987 68 69 130 67.0133 
68.0133 130 68 80.9867 130 68 81 129.987 68 
69 131 67.0133 68.0133 131 68 70 131 67.0133 
80.9867 131 68 69 131.987 68 70 131.987 68 
71 132 67.0133 70.0133 132 68 72 132 67.0133 
73 132 67.0133 80.9867 132 68 71 133 67.0133 
70.0133 133 68 72 133 67.0133 73 133 67.0133 
74 133 67.0133 80.9867 133 68 71 133.987 68 
72 133.987 68 73 133.987 68 74 133.987 68 
75 134 67.0133 74.0133 134 68 79 134 67.0133 
80 134 67.0133 80.9867 134 68 75 135 67.0133 
74.0133 135 68 76 135 67.0133 78 135 67.0133 
79 135 67.0133 79.9867 135 68 80 134.987 68 
75 135.987 68 76 135.987 68 77 135.987 68 
78 135.987 68 79 135.987 68 62 112 68.0133 
62 111.013 69 61.0133 112 69 63 111.013 69 
64 111.013 69 64.9867 112 69 61.0133 113 69 
64.9867 113 69 62 113.987 69 62.0133 114 69 
65 113.013 69 66 113.013 69 66.9867 114 69 
62.0133 115 69 66.9867 115 69 62.0133 116 69 
67 115.013 69 68 115.013 69 68.9867 116 69 
62.0133 117 69 68.9867 117 69 70 117 68.0133 
70 116.013 69 69.0133 117 69 71 117 68.0133 
71 116.013 69 71.9867 117 69 62.0133 118 69 
69 117.013 69 72 117.013 69 72.9867 118 69 
62.0133 119 69 72.9867 119 69 62.0133 120 69 
72.9867 120 69 62.0133 121 69 72.9867 121 69 
63 121.987 69 64 121.987 69 64.0133 122 69 
73 121.013 69 74 121.013 69 74.9867 122 69 
64.0133 123 69 74.9867 123 69 64.0133 124 69 
75 123.013 69 76 123.013 69 76.9867 124 69 
64.0133 125 69 77 124.013 69 77 125 68.0133 
78 125 68.0133 78 124.013 69 78.9867 125 69 
64.0133 126 69 79 125.013 69 80 125.013 69 
80.9867 126 69 64.0133 127 69 80.9867 127 69 
65 127.987 69 66 127.987 69 66.0133 128 69 
81 127.013 69 82 128 68.9867 81.9867 128 69 
66.0133 129 69 81 129 68.9867 80.9867 129 69 
81 128.987 69 67 129.987 69 68 129.987 69 
68.0133 130 69 80.9867 130 69 68.0133 131 69 
80.9867 131 69 69 131.987 69 70 131.987 69 
70.0133 132 69 80.9867 132 69 70.0133 133 69 
80.9867 133 69 71 133.987 69 72 133.987 69 
73 133.987 69 74 134 68.0133 73.0133 134 69 
80.9867 134 69 74 134.987 69 74.0133 135 69 
79.9867 135 69 80 134.987 69 75 135.987 69 
76 135.987 69 77 135.987 69 78 135.987 69 
79 135.987 69 62 112 69.9867 62.0133 112 70 
63 111.013 70 64 111.013 70 64.9867 112 70 
62 113 69.9867 62.0133 113 70 64.9867 113 70 
62.0133 114 70 65 113.013 70 66 113.013 70 
66.9867 114 70 62.0133 115 70 66.9867 115 70 
62.0133 116 70 67 115.013 70 68 115.013 70 
68.9867 116 70 62.0133 117 70 68.9867 117 70 
70 116.013 70 69.0133 117 70 71 117 69.9867 
70.9867 117 70 62.0133 118 70 69 117.013 70 
71 117.013 70 72 117.013 70 72.9867 118 70 
62.0133 119 70 72.9867 119 70 62.0133 120 70 
72.9867 120 70 62.0133 121 70 72.9867 121 70 
63 121.987 70 64 121.987 70 64.0133 122 70 
73 121.013 70 74 121.013 70 74.9867 122 70 
[...]
POINT_DATA 1588
SCALARS scalars float
LOOKUP_TABLE default
1 1 1 1 1 1 1 1 1 
1 1 1 1 1 1 1 1 1 
1 1 1 1 1 1 1 1 1 
1 1 1 1 1 1 1 1 1 
1 1 1 1 1 1 1 1 1 
1 1 1 1 1 1 1 1 1 
1 1 1 1 1 1 1 1 1 
1 1 1 1 1 1 1 1 1 
1 1 1 1 1 1 1 1 1 
1 1 1 1 1 1 1 1 1 
1 1 1 1 1 1 1 1 1 
1 1 1 1 1 1 1 1 1 
1 1 1 1 1 1 1 1 1 
1 1 1 1 1 1 1 1 1 
1 1 1 1 1 1 1 1 1 
1 1 1 1 1 1 1 1 1 
1 1 1 1 1 1 1 1 1 
1 1 1 1 1 1 1 1 1 
1 1 1 1 1 1 1 1 1 
1 1 1 1 1 1 1 1 1 
1 1 1 1 1 1 1 1 1 
1 1 1 1 1 1 1 1 1 
1 1 1 1 1 1 1 1 1 
1 1 1 1 1 1 1 1 1 
1 1 1 1 1 1 1 1 1 
1 1 1 1 1 1 1 1 1 
1 1 1 1 1 1 1 1 1 
1 1 1 1 1 1 1 1 1 
1 1 1 1 1 1 1 1 1 
1 1 1 1 1 1 1 1 1 
1 1 1 1 1 1 1 1 1 
1 1 1 1 1 1 1 1 1 
1 1 1 1 1 1 1 1 1 
1 1 1 1 1 1 1 1 1 
1 1 1 1 1 1 1 1 1 
1 1 1 1 1 1 1 1 1 
1 1 1 1 1 1 1 1 1 
1 1 1 1 1 1 1 1 1 
1 1 1 1 1 1 1 1 1 
1 1 1 1 1 1 1 1 1 
1 1 1 1 1 1 1 1 1 
1 1 1 1 1 1 1 1 1 
1 1 1 1 1 1 1 1 1 
1 1 1 1 1 1 1 1 1 
1 1 1 1 1 1 1 1 1 
1 1 1 1 1 1 1 1 1 
1 1 1 1 1 1 1 1 1 
1 1 1 1 1 1 1 1 1 
1 1 1 1 1 1 1 1 1 
1 1 1 1 1 1 1 1 1 
1 1 1 1 1 1 1 1 1 
1 1 1 1 1 1 1 1 1 
1 1 1 1 1 1 1 1 1 
1 1 1 1 1 1 1 1 1 
1 1 1 1 1 1 1 1 1 
1 1 1 1 1 1 1 1 1 
1 1 1 1 1 1 1 1 1 
1 1 1 1 1 1 1 1 1 
1 1 1 1 1 1 1 1 1 
1 1 1 1 1 1 1 1 1 
1 1 1 1 1 1 1 1 1 
1 1 1 1 1 1 1 1 1 
1 1 1 1 1 1 1 1 1 
1 1 1 1 1 1 1 1 1 
1 1 1 1 1 1 1 1 1 
1 1 1 1 1 1 1 1 1 
1 1 1 1 1 1 1 1 1 
1 1 1 1 1 1 1 1 1 
1 1 1 1 1 1 1 1 1 
1 1 1 1 1 1 1 1 1 
1 1 1 1 1 1 1 1 1 
1 1 1 1 1 1 1 1 1 
1 1 1 1 1 1 1 1 1 
1 1 1 1 1 1 1 1 1 
1 1 1 1 1 1 1 1 1 
1 1 1 1 1 1 1 1 1 
1 1 1 1 1 1 1 1 1 
1 1 1 1 1 1 1 1 1 
1 1 1 1 1 1 1 1 1 
1 1 1 1 1 1 1 1 1 
1 1 1 1 1 1 1 1 1 
1 1 1 1 1 1 1 1 1 
1 1 1 1 1 1 1 1 1 
1 1 1 1 1 1 1 1 1 
1 1 1 1 1 1 1 1 1 
1 1 1 1 1 1 1 1 1 
1 1 1 1 1 1 1 1 1 
1 1 1 1 1 1 1 1 1 
1 1 1 1 1 1 1 1 1 
1 1 1 1 1 1 1 1 1 
1 1 1 1 1 1 1 1 1 
1 1 1 1 1 1 1 1 1 
1 1 1 1 1 1 1 1 1 
1 1 1 1 1 1 1 1 1 
1 1 1 1 1 1 1 1 1 
1 1 1 1 1 1 1 1 1 
1 1 1 1 1 1 1 1 1 
1 1 1 1 1 1 1 1 1 
1 1 1 1 1 1 1 1 1 
1 1 1 1 1 1 1 1 1 
1 1 1 1 1 1 1 1 1 
1 1 1 1 1 1 1 1 1 
1 1 1 1 1 1 1 1 1 
1 1 1 1 1 1 1 1 1 
1 1 1 1 1 1 1 1 1 
1 1 1 1 1 1 1 1 1 
1 1 1 1 1 1 1 1 1 
1 1 1 1 1 1 1 1 1 
1 1 1 1 1 1 1 1 1 
1 1 1 1 1 1 1 1 1 
1 1 1 1 1 1 1 1 1 
1 1 1 1 1 1 1 1 1 
1 1 1 1 1 1 1 1 1 
1 1 1 1 1 1 1 1 1 
1 1 1 1 1 1 1 1 1 
1 1 1 1 1 1 1 1 1 
1 1 1 1 1 1 1 1 1 
1 1 1 1 1 1 1 1 1 
1 1 1 1 1 1 1 1 1 
1 1 1 1 1 1 1 1 1 
1 1 1 1 1 1 1 1 1 
1 1 1 1 1 1 1 1 1 
1 1 1 1 1 1 1 1 1 
1 1 1 1 1 1 1 1 1 
1 1 1 1 1 1 1 1 1 
1 1 1 1 1 1 1 1 1 
1 1 1 1 1 1 1 1 1 
1 1 1 1 1 1 1 1 1 
1 1 1 1 1 1 1 1 1 
1 1 1 1 1 1 1 1 1 
1 1 1 1 1 1 1 1 1 
1 1 1 1 1 1 1 1 1 
1 1 1 1 1 1 1 1 1 
1 1 1 1 1 1 1 1 1 
1 1 1 1 1 1 1 1 1 
1 1 1 1 1 1 1 1 1 
1 1 1 1 1 1 1 1 1 
1 1 1 1 1 1 1 1 1 
1 1 1 1 1 1 1 1 1 
1 1 1 1 1 1 1 1 1 
1 1 1 1 1 1 1 1 1 
1 1 1 1 1 1 1 1 1 
1 1 1 1 1 1 1 1 1 
1 1 1 1 1 1 1 1 1 
1 1 1 1 1 1 1 1 1 
1 1 1 1 1 1 1 1 1 
1 1 1 1 1 1 1 1 1 
1 1 1 1 1 1 1 1 1 
1 1 1 1 1 1 1 1 1 
1 1 1 1 1 1 1 1 1 
1 1 1 1 1 1 1 1 1 
1 1 1 1 1 1 1 1 1 
1 1 1 1 1 1 1 1 1 
1 1 1 1 1 1 1 1 1 
1 1 1 1 1 1 1 1 1 
1 1 1 1 1 1 1 1 1 
1 1 1 1 1 1 1 1 1 
1 1 1 1 1 1 1 1 1 
1 1 1 1 1 1 1 1 1 
1 1 1 1 1 1 1 1 1 
1 1 1 1 1 1 1 1 1 
1 1 1 1 1 1 1 1 1 
1 1 1 1 1 1 1 1 1 
1 1 1 1 1 1 1 1 1 
1 1 1 1 1 1 1 1 1 
1 1 1 1 1 1 1 1 1 
1 1 1 1 1 1 1 1 1 
1 1 1 1 1 1 1 1 1 
1 1 1 1 1 1 1 1 1 
1 1 1 1 1 1 1 1 1 
1 1 1 1 1 1 1 1 1 
1 1 1 1 1 1 1 1 1 
1 1 1 1 1 1 1 1 1 
1 1 1 1 1 1 1 1 1 
1 1 1 1 1 1 1 1 1 
1 1 1 1 1 1 1 1 1 
1 1 1 1 
NORMALS normals float
-0.0133321 0 -0.999911 -0.00949072 -0.702314 -0.711804 -0.999911 0 -0.0133321 
0.013331 -0.013331 -0.999822 0.00942767 -0.707075 -0.707075 0.707075 -0.00942767 -0.707075 
-0.579916 0.572184 -0.579916 -0.572184 0.579916 -0.579916 0 0.0133321 -0.999911 
0.702314 0.00949072 -0.711804 0 0.707107 -0.707107 -0.0133321 0 -0.999911 
-0.00949072 -0.702314 -0.711804 -0.707107 0 -0.707107 0 0 -1 
0 -0.702345 -0.711836 0.013331 -0.013331 -0.999822 0.00942767 -0.707075 -0.707075 
0.707075 -0.00942767 -0.707075 -0.013511 0.999817 -0.013511 -0.57475 0.57475 -0.582517 
-0.572184 0.579916 -0.579916 0 0.0133321 -0.999911 0.577315 -0.569514 -0.585117 
-0.572184 0.579916 -0.579916 0.569514 -0.577315 -0.585117 -0.579916 0.572184 -0.579916 
-0.0133321 0 -0.999911 0 0 -1 0 -0.702345 -0.711836 
0 0 -1 0 -0.702345 -0.711836 0.013331 -0.013331 -0.999822 
0.00942767 -0.707075 -0.707075 0.707075 -0.00942767 -0.707075 -0.00949072 0.702314 -0.711804 
0 0.702345 -0.711836 -0.57475 0.57475 -0.582517 -0.572184 0.579916 -0.579916 
0 0.0133321 -0.999911 0.577315 -0.569514 -0.585117 -0.572184 0.579916 -0.579916 
0.569514 -0.577315 -0.585117 -0.579916 0.572184 -0.579916 -0.0133321 0 -0.999911 
0 0 -1 0 -0.702345 -0.711836 0 0 -1 
0 -0.702345 -0.711836 0.013331 -0.013331 -0.999822 0.00942767 -0.707075 -0.707075 
0.707075 -0.00942767 -0.707075 -0.00949072 0.702314 -0.711804 0 0.702345 -0.711836 
-0.57475 0.57475 -0.582517 -0.572184 0.579916 -0.579916 0 0.0133321 -0.999911 
0.702314 0.00949072 -0.711804 0 0.707107 -0.707107 -0.013331 -0.013331 -0.999822 
-0.00942767 -0.707075 -0.707075 -0.999822 -0.013331 -0.013331 0 -0.0133321 -0.999911 
0 -0.707107 -0.707107 0 -0.0133321 -0.999911 0 -0.707107 -0.707107 
0.013331 -0.013331 -0.999822 0.013331 -0.999822 -0.013331 0.999822 -0.013331 -0.013331 
-0.013331 0.013331 -0.999822 -0.999822 0.013331 -0.013331 0 0.0133321 -0.999911 
0 0 -1 0.0133321 0 -0.999911 0.579916 -0.572184 -0.579916 
-0.013331 0.999822 -0.013331 -0.572184 0.579916 -0.579916 -0.579916 0.572184 -0.579916 
-0.0133321 0 -0.999911 0 0 -1 0.572184 -0.579916 -0.579916 
0 -0.0133321 -0.999911 0.013331 -0.013331 -0.999822 0.013331 -0.999822 -0.013331 
0.999822 -0.013331 -0.013331 -0.0133321 0 -0.999911 -0.707107 0 -0.707107 
0 0 -1 0 0 -1 0.0133321 0 -0.999911 
0.579916 -0.572184 -0.579916 -0.00949072 -0.702314 -0.711804 -0.707107 0 -0.707107 
0 -0.702345 -0.711836 0 0 -1 0 0 -1 
0.572184 -0.579916 -0.579916 0 -0.0133321 -0.999911 0 -0.0133321 -0.999911 
0 -0.707107 -0.707107 0 -0.0133321 -0.999911 0 -0.707107 -0.707107 
0.013331 -0.013331 -0.999822 0.013331 -0.999822 -0.013331 0.999822 -0.013331 -0.013331 
-0.711836 0 -0.702345 0.702345 0 -0.711836 0 0 -1 
0 0 -1 0 0 -1 0 0 -1 
0.0133321 0 -0.999911 0.711804 -0.702314 -0.00949072 -0.579916 0.572184 -0.579916 
-0.999911 0 -0.0133321 0.702345 0 -0.711836 0 0 -1 
0 0 -1 0 0 -1 0 0 -1 
0 0 -1 0.702314 -0.711804 -0.00949072 0 -0.0133321 -0.999911 
0.013331 -0.013331 -0.999822 0.013331 -0.999822 -0.013331 0.999822 -0.013331 -0.013331 
-0.013331 0.013331 -0.999822 -0.999822 0.013331 -0.013331 0 0.707107 -0.707107 
0 0 -1 0 0 -1 0 0 -1 
0 0 -1 0 0 -1 0 0 -1 
0 0 -1 0.0133321 0 -0.999911 0.711804 -0.702314 -0.00949072 
-0.013331 0.999822 -0.013331 -0.572184 0.579916 -0.579916 -0.579916 0.572184 -0.579916 
-0.0133321 0 -0.999911 0 0 -1 0 0 -1 
0 0 -1 0 0 -1 0 0 -1 
0 0 -1 0 0 -1 0.702314 -0.711804 -0.00949072 
0 -0.0133321 -0.999911 0.013331 -0.013331 -0.999822 0.013331 -0.999822 -0.013331 
0.999822 -0.013331 -0.013331 -0.0133321 0 -0.999911 -0.707107 0 -0.707107 
0 0 -1 0 0 -1 0 0 -1 
0 0 -1 0 0 -1 0 0 -1 
0 0 -1 0 0 -1 0.0133321 0 -0.999911 
0.711804 -0.702314 -0.00949072 -0.0133321 0 -0.999911 -0.707107 0 -0.707107 
0 -0.702345 -0.711836 0 -0.702345 -0.711836 0 -0.702345 -0.711836 
0 0 -1 0 0 -1 0 0 -1 
0 0 -1 0 0 -1 0 0 -1 
0.702314 -0.711804 -0.00949072 0 -0.0133321 -0.999911 0 -0.0133321 -0.999911 
0 -0.999911 -0.0133321 0 -0.0133321 -0.999911 0 -0.999911 -0.0133321 
0.013331 -0.013331 -0.999822 0.013331 -0.999822 -0.013331 0.999822 -0.013331 -0.013331 
-0.707075 0.00942767 -0.707075 -0.999822 0.013331 -0.013331 0.702345 0 -0.711836 
0 0 -1 0 0 -1 0 0 -1 
0 0 -1 0 0 -1 0 0 -1 
0 0 -1 0 0 -1 0.0133321 0 -0.999911 
0.711804 -0.702314 -0.00949072 -0.013331 0.999822 -0.013331 -0.57475 0.582517 -0.57475 
-0.579916 0.572184 -0.579916 -0.579916 0.572184 -0.579916 0.57475 -0.57475 -0.582517 
0 -0.702345 -0.711836 0 -0.702345 -0.711836 0 -0.702345 -0.711836 
0 0 -1 0 0 -1 0 0 -1 
0 0 -1 0 0 -1 0 0 -1 
0.702314 -0.711804 -0.00949072 0 -0.0133321 -0.999911 0.0133321 0 -0.999911 
0.013511 -0.999817 -0.013511 0.999911 0 -0.0133321 -0.013331 0.013331 -0.999822 
-0.999822 0.013331 -0.013331 -0.572184 0.579916 -0.579916 0.702345 0 -0.711836 
0 0 -1 0 0 -1 0 0 -1 
0 0 -1 0 0 -1 0.013331 0.013331 -0.999822 
0.707075 0.707075 -0.00942767 0.711804 0.702314 -0.00949072 -0.013331 0.999822 -0.013331 
-0.572184 0.579916 -0.579916 -0.00949072 0.702314 -0.711804 -0.579916 0.572184 -0.579916 
0 0.702345 -0.711836 -0.57475 0.57475 -0.582517 0.57475 -0.57475 -0.582517 
0 -0.702345 -0.711836 0 -0.702345 -0.711836 0 -0.702345 -0.711836 
0 0 -1 0.0133321 0 -0.999911 0.711804 0.702314 -0.00949072 
0.707075 0.707075 -0.00942767 -0.013331 0.013331 -0.999822 -0.999822 0.013331 -0.013331 
0 0.0133321 -0.999911 0 0.0133321 -0.999911 -0.572184 0.579916 -0.579916 
0.702345 0 -0.711836 0.0133321 0 -0.999911 0.999911 0 -0.0133321 
-0.013331 0.999822 -0.013331 0 0.999911 -0.0133321 0 0.999911 -0.0133321 
-0.572184 0.579916 -0.579916 -0.00949072 0.702314 -0.711804 -0.579916 0.572184 -0.579916 
0 0.702345 -0.711836 -0.57475 0.57475 -0.582517 0.702345 0 -0.711836 
0.0133321 0 -0.999911 0.999911 0 -0.0133321 -0.013331 0.013331 -0.999822 
-0.999822 0.013331 -0.013331 0 0.0133321 -0.999911 0 0 -1 
0 0.702345 -0.711836 0 0.0133321 -0.999911 0.013331 0.013331 -0.999822 
0.999822 0.013331 -0.013331 -0.013331 0.999822 -0.013331 -0.572184 0.579916 -0.579916 
-0.579916 0.572184 -0.579916 -0.0133321 0 -0.999911 0.013331 0.013331 -0.999822 
0.707075 0.707075 -0.00942767 0.702314 0.711804 -0.00949072 0.013331 0.999822 -0.013331 
0 0.0133321 -0.999911 -0.999817 0.013511 -0.013511 0.702314 0.711804 -0.00949072 
0.707075 0.707075 -0.00942767 0 0.999911 -0.0133321 -0.00942767 -0.707075 -0.707075 
-0.00942767 -0.707075 -0.707075 -0.999822 -0.013331 -0.013331 0 -0.707107 -0.707107 
0 -0.707107 -0.707107 0.00942767 -0.707075 -0.707075 0.00942767 -0.707075 -0.707075 
0.57735 -0.57735 -0.57735 -1 0 0 0.579916 -0.579916 -0.572184 
0.579916 -0.579916 -0.572184 -0.999911 0.0133321 0 0.57735 -0.57735 -0.57735 
0.57735 -0.57735 -0.57735 0.57735 -0.57735 -0.57735 -0.579916 0.579916 -0.572184 
-0.579916 0.572184 -0.579916 -0.579916 0.572184 -0.579916 0.579916 -0.579916 -0.572184 
0.579916 -0.579916 -0.572184 -0.707107 0 -0.707107 -0.707107 0 -0.707107 
0.572184 -0.579916 -0.579916 0.572184 -0.579916 -0.579916 0 -0.707107 -0.707107 
0 -0.707107 -0.707107 0.00942767 -0.707075 -0.707075 0.00942767 -0.707075 -0.707075 
0.57735 -0.57735 -0.57735 -0.707107 0 -0.707107 -0.707107 0 -0.707107 
0.579916 -0.579916 -0.572184 0.999911 -0.0133321 0 -0.707075 0.00942767 -0.707075 
-0.707075 0.00942767 -0.707075 0.711836 -0.702345 0 -0.707075 0.707075 -0.00942767 
-0.711836 0.702345 0 0.702345 -0.711836 0 0.0133321 -0.999911 0 
0.999911 -0.0133321 0 -0.999911 0.0133321 0 0.711836 -0.702345 0 
-0.579916 0.579916 -0.572184 -0.579916 0.572184 -0.579916 -0.579916 0.572184 -0.579916 
0.702345 -0.711836 0 0.0133321 -0.999911 0 0.999911 -0.0133321 0 
-0.707107 0 -0.707107 -0.707107 0 -0.707107 0.711836 -0.702345 0 
-0.707075 0.00942767 -0.707075 -0.707075 0.00942767 -0.707075 0.702345 -0.711836 0 
0 -1 0 0 -1 0 0.0133321 -0.999911 0 
0.999911 -0.0133321 0 -0.57735 0.57735 -0.57735 -0.579916 0.579916 -0.572184 
0.711836 -0.702345 0 -0.579916 0.579916 -0.572184 -0.57735 0.57735 -0.57735 
-0.57735 0.57735 -0.57735 0.702345 -0.711836 0 0.0135123 -0.999909 0 
1 0 0 -0.57735 0.57735 -0.57735 -0.579916 0.579916 -0.572184 
0.707107 0.707107 0 0.711836 0.702345 0 -0.579916 0.579916 -0.572184 
-0.57735 0.57735 -0.57735 -0.57735 0.57735 -0.57735 0.711836 0.702345 0 
0.707107 0.707107 0 -0.57735 0.57735 -0.57735 -0.579916 0.579916 -0.572184 
1 0 0 -0.00949072 0.711804 -0.702314 0 0.711836 -0.702345 
-0.57475 0.582517 -0.57475 -0.57735 0.57735 -0.57735 -0.57735 0.57735 -0.57735 
1 0 0 -0.57735 0.57735 -0.57735 -0.579916 0.579916 -0.572184 
0.999911 0.0133321 0 -0.579916 0.579916 -0.572184 -0.57735 0.57735 -0.57735 
-0.57735 0.57735 -0.57735 0.579916 0.579916 -0.572184 0.57475 0.582517 -0.57475 
0.00949072 0.711804 -0.702314 -0.57735 0.57735 -0.57735 -0.57475 0.582517 -0.57475 
0.57475 0.582517 -0.57475 0.579916 0.579916 -0.572184 0 1 0 
-0.013331 -0.013331 -0.999822 -0.013331 -0.999822 -0.013331 -0.57735 -0.57735 -0.57735 
0.013331 -0.013331 -0.999822 0.013331 -0.999822 -0.013331 0.999822 -0.013331 -0.013331 
-0.0133321 0 -0.999911 -0.579916 -0.572184 -0.579916 -0.999911 0 -0.0133321 
0 0 -1 0.0133321 0 -0.999911 0.711804 -0.702314 -0.00949072 
-0.711804 0.702314 -0.00949072 -0.711804 0.702314 -0.00949072 -0.00949072 -0.702314 -0.711804 
0 -0.702345 -0.711836 0.702314 -0.711804 -0.00949072 0 -0.707107 -0.707107 
0.013331 -0.013331 -0.999822 0.013331 -0.999822 -0.013331 0.999822 -0.013331 -0.013331 
-1 0 0 0.579916 -0.572184 -0.579916 0.711804 -0.702314 -0.00949072 
-1 0 0 0.572184 -0.579916 -0.579916 0.702314 -0.711804 -0.00949072 
0.013331 -0.013331 -0.999822 0.013331 -0.999822 -0.013331 0.999822 -0.013331 -0.013331 
-1 0 0 0.579916 -0.572184 -0.579916 0.711804 -0.702314 -0.00949072 
-0.579916 0.572184 -0.579916 -0.999911 0 -0.0133321 0.572184 -0.579916 -0.579916 
0.702314 -0.711804 -0.00949072 0 -0.707107 -0.707107 0 -0.707107 -0.707107 
0 -0.707107 -0.707107 0 -0.707107 -0.707107 0.013331 -0.013331 -0.999822 
0.013331 -0.999822 -0.013331 0.999822 -0.013331 -0.013331 -0.707107 0 -0.707107 
-0.999911 0 -0.0133321 0.579916 -0.572184 -0.579916 0.999911 0 -0.0133321 
-0.707107 0 -0.707107 -0.999911 0 -0.0133321 1 0 0 
-0.707075 0.00942767 -0.707075 -0.999822 0.013331 -0.013331 0.711836 -0.702345 0 
-0.013331 0.999822 -0.013331 -0.702345 0.711836 0 -0.711836 0.702345 0 
0.702345 -0.711836 0 0.0133321 -0.999911 0 0.999911 -0.0133321 0 
-1 0 0 0.711836 -0.702345 0 -0.579916 0.572184 -0.579916 
-0.999911 0 -0.0133321 0.702345 -0.711836 0 0.0133321 -0.999911 0 
0.999911 -0.0133321 0 -0.707107 0 -0.707107 -0.999911 0 -0.0133321 
0.582517 -0.57475 -0.57475 -0.707107 0 -0.707107 -0.999911 0 -0.0133321 
0.57475 -0.582517 -0.57475 0 -0.711836 -0.702345 0 -1 0 
0.0133321 -0.999911 0 0.999911 -0.0133321 0 -0.013331 0.013331 -0.999822 
-0.999822 0.013331 -0.013331 -0.572184 0.579916 -0.579916 0.711836 -0.702345 0 
-0.013331 0.999822 -0.013331 -0.702314 0.711804 -0.00949072 -0.579916 0.572184 -0.579916 
-0.711804 0.702314 -0.00949072 0.702345 -0.711836 0 0.013511 -0.999817 0.013511 
0.999911 0 0.0133321 -0.013331 0.013331 -0.999822 -0.999822 0.013331 -0.013331 
-0.572184 0.579916 -0.579916 0.707075 0.707075 0.00942767 0.711804 0.702314 0.00949072 
-0.013331 0.999822 -0.013331 -0.702314 0.711804 -0.00949072 -0.579916 0.572184 -0.579916 
-0.711804 0.702314 -0.00949072 0.711836 0.702345 0 0.707075 0.707075 0.00942767 
-0.013331 0.013331 -0.999822 -0.999822 0.013331 -0.013331 -0.572184 0.579916 -0.579916 
1 0 0 -0.013331 0.999822 -0.013331 -0.702314 0.711804 -0.00949072 
-0.00949072 0.702314 -0.711804 -0.711804 0.702314 -0.00949072 0 0.702345 -0.711836 
-0.57475 0.57475 -0.582517 1 0 0 -0.013331 0.013331 -0.999822 
-0.999822 0.013331 -0.013331 0 0.0133321 -0.999911 0 0.0133321 -0.999911 
-0.572184 0.579916 -0.579916 1 0 0 -0.013331 0.999822 -0.013331 
0 0.999911 -0.0133321 0 0.999911 -0.0133321 -0.572184 0.579916 -0.579916 
-0.579916 0.572184 -0.579916 -0.579916 0.572184 -0.579916 0.57475 0.57475 -0.582517 
0.00942767 0.707075 -0.707075 0.999822 0.013331 -0.013331 -0.013331 0.013331 -0.999822 
-0.999822 0.013331 -0.013331 -0.572184 0.579916 -0.579916 0.572184 0.579916 -0.579916 
0.013331 0.013331 -0.999822 0.707075 0.707075 -0.00942767 0.707075 0.707075 -0.00942767 
-0.013331 0.999822 -0.013331 0 0.999911 -0.0133321 0 1 0 
0 0.999911 -0.0133321 0.013331 0.999822 -0.013331 -0.579916 -0.579916 -0.572184 
-0.0133321 -0.999911 0 -0.999911 -0.0133321 0 0 -1 0 
0.0133321 -0.999911 0 0.999911 -0.0133321 0 -0.999822 0.013331 0.013331 
0.711836 -0.702345 0 -0.707075 0.707075 0.00942767 -0.711836 0.702345 0 
0.702345 -0.711836 0 0.0133321 -0.999911 0 0.999911 -0.0133321 0 
-1 0 0 0.711836 -0.702345 0 -1 0 0 
0.702345 -0.711836 0 0.0133321 -0.999911 0 0.999911 -0.0133321 0 
-1 0 0 0.0135123 -0.999909 0 -0.00942767 -0.707075 -0.707075 
-0.013331 -0.999822 -0.013331 -0.013331 -0.999822 -0.013331 0.00949072 -0.711804 -0.702314 
0.0133321 -0.999911 0 0.707107 -0.707107 0 -1 0 0 
0 -1 0 0.707107 -0.707107 0 0.999911 -0.0133321 0 
-1 0 0 1 0 0 -1 0 0 
1 0 0 -0.999911 0.0133321 0 0.711836 -0.702345 0 
-0.0133321 0.999911 0 -0.702345 0.711836 0 -0.711836 0.702345 0 
0.702345 -0.711836 0 0.0133321 -0.999911 0 0.999911 -0.0133321 0 
-1 0 0 0.711836 -0.702345 0 -1 0 0 
0.702345 -0.711836 0 0.0133321 -0.999911 0 0.579916 -0.579916 -0.572184 
-1 0 0 0.572184 -0.579916 -0.579916 0.572184 -0.579916 -0.579916 
0.00942767 -0.707075 -0.707075 0.00942767 -0.707075 -0.707075 0.707075 -0.707075 -0.00942767 
-1 0 0 0.702345 -0.711836 0 0.0133321 -0.999911 0 
0.999911 -0.0133321 0 -0.999911 0.0133321 0 0.711836 -0.702345 0 
-0.0133321 0.999911 0 -0.702345 0.711836 0 -0.711836 0.702345 0 
0.711804 -0.702314 0.00949072 0.707107 0 0.707107 0.707107 0 0.707107 
-0.999911 0.0133321 0 0.57735 0.57735 0.57735 0.582517 0.57475 0.57475 
0.579916 0.572184 0.579916 -0.0133321 0.999911 0 -0.702345 0.711836 0 
-0.711836 0.702345 0 1 0 0 -0.999911 0.0133321 0 
1 0 0 -0.0133321 0.999911 0 -0.702345 0.711836 0 
-0.711836 0.702345 0 1 0 0 -0.999911 0.0133321 0 
1 0 0 -0.0133321 0.999911 0 0 1 0 
-0.57475 0.582517 -0.57475 -0.57735 0.57735 -0.57735 -0.57735 0.57735 -0.57735 
0.999911 0.0133321 0 -0.57735 0.57735 -0.57735 -0.579916 0.579916 -0.572184 
0.707107 0.707107 0 0.707107 0.707107 0 -0.0133321 0.999911 0 
0 1 0 0 1 0 0 1 0 
0.0133321 0.999911 0 -0.711804 -0.00949072 0.702314 -0.711804 -0.00949072 0.702314 
-0.0133321 -0.999911 0 0.0133321 -0.999911 0 0.999911 -0.0133321 0 
-0.707075 0.00942767 0.707075 -0.711836 0 0.702345 0.711836 -0.702345 0 
-1 0 0 0.702345 -0.711836 0 0.0133321 -0.999911 0 
0.999911 -0.0133321 0 -1 0 0 0.711836 -0.702345 0 
-1 0 0 0.702345 -0.711836 0 0.0133321 -0.999911 0 
0.999911 -0.0133321 0 -1 0 0 0.0135123 -0.999909 0 
0 -0.999911 0.0133321 0 -0.999911 0.0133321 0.579916 -0.579916 0.572184 
0.572184 -0.579916 0.579916 -1 0 0 0 -1 0 
0.57475 -0.582517 0.57475 0.013331 -0.999822 0.013331 0.999822 -0.013331 0.013331 
-1 0 0 1 0 0 -1 0 0 
1 0 0 -0.999822 0.013331 0.013331 0.711836 -0.702345 0 
-0.013331 0.999822 0.013331 -0.702345 0.711836 0 -0.711836 0.702345 0 
0.702345 -0.711836 0 0.0133321 -0.999911 0 0.999911 -0.0133321 0 
-1 0 0 0.711836 -0.702345 0 -1 0 0 
0.702345 -0.711836 0 0 -1 0 0.572184 -0.579916 -0.579916 
0 -0.999911 -0.0133321 0.00942767 -0.707075 -0.707075 0.013331 -0.999822 -0.013331 
0.999822 -0.013331 -0.013331 -1 0 0 0.711836 -0.702345 0 
-1 0 0 0.702345 -0.711836 0 0.0133321 -0.999911 0 
0.999911 -0.0133321 0 -0.999822 0.013331 0.013331 1 0 0 
-0.013331 0.999822 0.013331 -0.702345 0.711836 0 -0.711836 0.702345 0 
0.707107 0 0.707107 0.711836 0 0.702345 -0.999911 0.0133321 0 
1 0 0 -0.0133321 0.999911 0 -0.702345 0.711836 0 
-0.711836 0.702345 0 1 0 0 -0.999911 0.0133321 0 
0.999911 0 0.0133321 -0.0133321 0.999911 0 -0.702345 0.711836 0 
-0.711836 0.702345 0 0.999911 0 0.0133321 -0.999911 0.0133321 0 
0.999911 0 0.0133321 -0.0133321 0.999911 0 -0.702345 0.711836 0 
-0.579916 0.572184 -0.579916 -0.711804 0.702314 -0.00949072 0.999822 0.013331 0.013331 
-0.013331 0.013331 -0.999822 -0.999822 0.013331 -0.013331 -0.572184 0.579916 -0.579916 
0.707075 0.707075 0.00942767 0.707075 0.707075 0.00942767 -0.013331 0.999822 -0.013331 
0 0.999911 -0.0133321 0 1 0 0 1 0 
0 0.999911 0.0133321 0 0.999911 0.0133321 0.013331 0.999822 0.013331 
-0.0133321 -0.999911 0 -0.999911 -0.0133321 0 0.0133321 -0.999911 0 
0.999911 -0.0133321 0 -1 0 0 0.711836 -0.702345 0 
-1 0 0 0.702345 -0.711836 0 0.0133321 -0.999911 0 
0.999911 -0.0133321 0 -1 0 0 0.711836 -0.702345 0 
-1 0 0 0.702345 -0.711836 0 0.0133321 -0.999911 0 
0.999911 -0.0133321 0 -1 0 0 0.711836 -0.702345 0 
0 -0.707107 0.707107 -1 0 0 0.702345 -0.711836 0 