# vtk DataFile Version 3.0
vtk output
ASCII
DATASET POLYDATA
POINTS 4872 float
63 88 35.0103 63 87.0103 36 62.0103 88 36 
64 88 35.0103 64 87.0103 36 64.9897 88 36 
63 89 35.0103 62.0103 89 36 64 89 35.0103 
64.9897 89 36 63 90 35.0103 62.0103 90 36 
64 90 35.0103 65 89.0103 36 65 90 35.0103 
66 90 35.0103 66 89.0103 36 66.9897 90 36 
62 91 35.0103 62 90.0103 36 61.0103 91 36 
63 91 35.0103 64 91 35.0103 65 91 35.0103 
66 91 35.0103 66.9897 91 36 61 92 35.0103 
61 91.0103 36 60.0103 92 36 62 92 35.0103 
63 92 35.0103 64 92 35.0103 65 92 35.0103 
66 92 35.0103 66.9897 92 36 60 93 35.0103 
60 92.0103 36 59.0103 93 36 61 93 35.0103 
62 93 35.0103 63 93 35.0103 64 93 35.0103 
65 93 35.0103 65.9897 93 36 66 92.9897 36 
59 94 35.0103 59 93.0103 36 58.0103 94 36 
60 94 35.0103 61 94 35.0103 62 94 35.0103 
63 94 35.0103 64 94 35.0103 64.9897 94 36 
65 93.9897 36 59 95 35.0103 58.0103 95 36 
60 95 35.0103 61 95 35.0103 62 95 35.0103 
63 95 35.0103 64 95 35.0103 64.9897 95 36 
59 95.9897 36 60 95.9897 36 60.0103 96 36 
61 96 35.0103 62 96 35.0103 63 96 35.0103 
64 96 35.0103 64.9897 96 36 61 97 35.0103 
60.0103 97 36 62 97 35.0103 63 97 35.0103 
63.9897 97 36 64 96.9897 36 61 97.9897 36 
62 97.9897 36 63 97.9897 36 62 87 36.0103 
62 86.0103 37 61.0103 87 37 63 87 36.0103 
63 86.0103 37 63.9897 87 37 62 88 36.0103 
61.0103 88 37 64 87.0103 37 64.9897 88 37 
62 89 36.0103 61.0103 89 37 64.9897 89 37 
62 90 36.0103 61.0103 90 37 65 89.0103 37 
66 89.0103 37 66.9897 90 37 61 91 36.0103 
61 90.0103 37 60.0103 91 37 66.9897 91 37 
60.0103 92 37 66.9897 92 37 60 92.0103 37 
59.0103 93 37 66 93 36.0103 66.9897 93 37 
59 93.0103 37 58.0103 94 37 64.9897 94 37 
65 93.9897 37 66 93.9897 37 58.0103 95 37 
64.9897 95 37 59 95.9897 37 60 96 36.0103 
59.0103 96 37 64.9897 96 37 60 97 36.0103 
59.0103 97 37 64 97 36.0103 64.9897 97 37 
60 97.9897 37 61 97.9897 37 62 97.9897 37 
63 97.9897 37 64 97.9897 37 63 86 37.0103 
63 85.0103 38 62.0103 86 38 64 86 37.0103 
64 85.0103 38 64.9897 86 38 62 86.0103 38 
61.0103 87 38 64 87 37.0103 64.9897 87 38 
61 88 37.0103 61 87.0103 38 60.0103 88 38 
64.9897 88 38 61 89 37.0103 60.0103 89 38 
64.9897 89 38 61 90 37.0103 60.0103 90 38 
65 89.0103 38 66 89.0103 38 66.9897 90 38 
60.0103 91 38 66.9897 91 38 60.0103 92 38 
67 91.0103 38 67 92 37.0103 68 92 37.0103 
68 91.0103 38 68.9897 92 38 60 92.0103 38 
59.0103 93 38 67 93 37.0103 68 93 37.0103 
68.9897 93 38 59 93.0103 38 58.0103 94 38 
65 94 37.0103 66 94 37.0103 67 94 37.0103 
68 94 37.0103 68.9897 94 38 58.0103 95 38 
65 95 37.0103 66 95 37.0103 67 95 37.0103 
68 95 37.0103 68.9897 95 38 59 96 37.0103 
58.0103 96 38 65 96 37.0103 66 96 37.0103 
67 96 37.0103 68 96 37.0103 68.9897 96 38 
58 97 37.0103 58 96.0103 38 57.0103 97 38 
59 97 37.0103 65 97 37.0103 66 97 37.0103 
67 97 37.0103 67.9897 97 38 68 96.9897 38 
57 98 37.0103 57 97.0103 38 56.0103 98 38 
58 98 37.0103 59 98 37.0103 60 98 37.0103 
61 98 37.0103 62 98 37.0103 63 98 37.0103 
64 98 37.0103 65 98 37.0103 66 98 37.0103 
66.9897 98 38 67 97.9897 38 57 99 37.0103 
56.0103 99 38 58 99 37.0103 59 99 37.0103 
60 99 37.0103 61 99 37.0103 62 99 37.0103 
63 99 37.0103 64 99 37.0103 65 99 37.0103 
65.9897 99 38 66 98.9897 38 57 99.9897 38 
58 99.9897 38 59 99.9897 38 60 99.9897 38 
61 99.9897 38 62 99.9897 38 63 99.9897 38 
64 99.9897 38 65 99.9897 38 63 85 38.0103 
63 84.0103 39 62.0103 85 39 64 85 38.0103 
64 84.0103 39 64.9897 85 39 62.0103 86 39 
64.9897 86 39 62 86.0103 39 61.0103 87 39 
64.9897 87 39 61 87.0103 39 60.0103 88 39 
64.9897 88 39 60 89 38.0103 60 88.0103 39 
59.0103 89 39 65 88.0103 39 65 89 38.0103 
66 89 38.0103 66 88.0103 39 66.9897 89 39 
60 90 38.0103 59.0103 90 39 66.9897 90 39 
60 91 38.0103 59.0103 91 39 67 90.0103 39 
67 91 38.0103 67.9897 91 39 60 92 38.0103 
59.0103 92 39 68 91.0103 39 68.9897 92 39 
59 93 38.0103 59 92.0103 39 58.0103 93 39 
68.9897 93 39 58.0103 94 39 68.9897 94 39 
58.0103 95 39 68.9897 95 39 58.0103 96 39 
68.9897 96 39 58 96.0103 39 57.0103 97 39 
67.9897 97 39 68 96.9897 39 57 97.0103 39 
56.0103 98 39 66.9897 98 39 67 97.9897 39 
56.0103 99 39 66 99 38.0103 66.9897 99 39 
57 99.9897 39 58 99.9897 39 59 99.9897 39 
60 99.9897 39 61 99.9897 39 62 99.9897 39 
63 99.9897 39 64 99.9897 39 65 99.9897 39 
66 99.9897 39 64 83 39.0103 64 82.0103 40 
63.0103 83 40 64.9897 83 40 63 84 39.0103 
63 83.0103 40 62.0103 84 40 64 84 39.0103 
65 83.0103 40 65 84 39.0103 66 84 39.0103 
66 83.0103 40 66.9897 84 40 62.0103 85 40 
65 85 39.0103 66 85 39.0103 66.9897 85 40 
62.0103 86 40 65 86 39.0103 66 86 39.0103 
66.9897 86 40 62 86.0103 40 61.0103 87 40 
65 87 39.0103 66 87 39.0103 66.9897 87 40 
61 87.0103 40 60.0103 88 40 65 88 39.0103 
66 88 39.0103 67 87.0103 40 67 88 39.0103 
68 88 39.0103 68 87.0103 40 68.9897 88 40 
60 88.0103 40 59.0103 89 40 67 89 39.0103 
68 89 39.0103 68.9897 89 40 59 90 39.0103 
59 89.0103 40 58.0103 90 40 67 90 39.0103 
68 90 39.0103 68.9897 90 40 59 91 39.0103 
58.0103 91 40 68 91 39.0103 68.9897 91 40 
59 92 39.0103 58.0103 92 40 68.9897 92 40 
58.0103 93 40 68.9897 93 40 58.0103 94 40 
68.9897 94 40 58.0103 95 40 68.9897 95 40 
55 96 39.0103 55 95.0103 40 54.0103 96 40 
56 96 39.0103 56 95.0103 40 56.9897 96 40 
58.0103 96 40 68.9897 96 40 55 97 39.0103 
54.0103 97 40 56 97 39.0103 56.9897 97 40 
58 96.0103 40 57.0103 97 40 68 97 39.0103 
68.9897 97 40 55 97.9897 40 56 97.9897 40 
56.0103 98 40 57 97.0103 40 67 98 39.0103 
68 98 39.0103 68.9897 98 40 56.0103 99 40 
67 99 39.0103 68 99 39.0103 68.9897 99 40 
57 99.9897 40 58 99.9897 40 59 100 39.0103 
58.0103 100 40 60 100 39.0103 61 100 39.0103 
62 100 39.0103 63 100 39.0103 64 100 39.0103 
65 100 39.0103 66 100 39.0103 67 100 39.0103 
68 100 39.0103 68.9897 100 40 59 101 39.0103 
58.0103 101 40 60 101 39.0103 61 101 39.0103 
62 101 39.0103 63 101 39.0103 64 101 39.0103 
65 101 39.0103 66 101 39.0103 67 101 39.0103 
67.9897 101 40 68 100.99 40 59 101.99 40 
60 101.99 40 61 101.99 40 62 101.99 40 
63 101.99 40 64 101.99 40 65 101.99 40 
66 101.99 40 67 101.99 40 64 82.0103 41 
63.0103 83 41 65 83 40.0103 65 82.0103 41 
66 83 40.0103 66 82.0103 41 66.9897 83 41 
63 83.0103 41 62.0103 84 41 66.9897 84 41 
62 85 40.0103 62 84.0103 41 61.0103 85 41 
66.9897 85 41 62 86 40.0103 61.0103 86 41 
66.9897 86 41 61 87 40.0103 61 86.0103 41 
60.0103 87 41 67 86.0103 41 67 87 40.0103 
67.9897 87 41 60 88 40.0103 60 87.0103 41 
59.0103 88 41 68 87.0103 41 68.9897 88 41 
59 89 40.0103 59 88.0103 41 58.0103 89 41 
68.9897 89 41 58.0103 90 41 68.9897 90 41 
58 91 40.0103 58 90.0103 41 57.0103 91 41 
68.9897 91 41 58 92 40.0103 57.0103 92 41 
68.9897 92 41 58 93 40.0103 57.0103 93 41 
68.9897 93 41 58 94 40.0103 57.0103 94 41 
68.9897 94 41 55 95 40.0103 55 94.0103 41 
54.0103 95 41 56 95 40.0103 56 94.0103 41 
56.9897 95 41 58 95 40.0103 57.0103 95 41 
68.9897 95 41 54.0103 96 41 56.9897 96 41 
58 96 40.0103 57.0103 96 41 68.9897 96 41 
54.0103 97 41 57 96.0103 41 57 97 40.0103 
68.9897 97 41 55 97.9897 41 56 97.9897 41 
56.0103 98 41 68.9897 98 41 57 98.9897 41 
57 99 40.9897 58 98.9897 41 58 99 40.9897 
58.0103 99 41 68.9897 99 41 58.0103 100 41 
68.9897 100 41 59 100.99 41 59 101 40.9897 
60 100.99 41 60 101 40.9897 61 100.99 41 
61 101 40.9897 62 100.99 41 62 101 40.9897 
62.0103 101 41 67.9897 101 41 68 100.99 41 
63 101.99 41 64 101.99 41 65 101.99 41 
66 101.99 41 67 101.99 41 66 81 41.0103 
66 80.0103 42 65.0103 81 42 66.9897 81 42 
65 82 41.0103 65 81.0103 42 64.0103 82 42 
66 82 41.0103 67 81.0103 42 67 82 41.0103 
68 82 41.0103 68 81.0103 42 68.9897 82 42 
64 82.0103 42 63.0103 83 42 67 83 41.0103 
68 83 41.0103 68.9897 83 42 63 83.0103 42 
62.0103 84 42 67 84 41.0103 68 84 41.0103 
68.9897 84 42 62 84.0103 42 61.0103 85 42 
67 85 41.0103 68 85 41.0103 68.9897 85 42 
61 86 41.0103 61 85.0103 42 60.0103 86 42 
67 86 41.0103 68 86 41.0103 68.9897 86 42 
60 87 41.0103 60 86.0103 42 59.0103 87 42 
68 87 41.0103 68.9897 87 42 59 88 41.0103 
59 87.0103 42 58.0103 88 42 69 88 41.0103 
69 87.0103 42 70 88 41.0103 70 87.0103 42 
70.9897 88 42 58.0103 89 42 69 89 41.0103 
70 89 41.0103 70.9897 89 42 58.0103 90 42 
69 90 41.0103 70 90 41.0103 70.9897 90 42 
58 90.0103 42 57.0103 91 42 69 91 41.0103 
70 91 41.0103 70.9897 91 42 57 92 41.0103 
57 91.0103 42 56.0103 92 42 69 92 41.0103 
70 92 41.0103 70.9897 92 42 56 93 41.0103 
56 92.0103 42 55.0103 93 42 57 93 41.0103 
69 93 41.0103 70 93 41.0103 70.9897 93 42 
55 94 41.0103 55 93.0103 42 54.0103 94 42 
56 94 41.0103 57 94 41.0103 69 94 41.0103 
70 94 41.0103 70.9897 94 42 54 95 41.0103 
54 94.0103 42 53.0103 95 42 57 95 41.0103 
69 95 41.0103 70 95 41.0103 70.9897 95 42 
54 95.9897 42 54.0103 96 42 57 96 41.0103 
69 96 41.0103 70 96 41.0103 70.9897 96 42 
54.0103 97 42 69 97 41.0103 69.9897 97 42 
70 96.9897 42 55 97.9897 42 56 97.9897 42 
57 97.9897 42 57 98 41.9897 58 97.9897 42 
58 98 41.9897 59 97.9897 42 59 98 41.9897 
60 97.9897 42 60 98 41.9897 60.0103 98 42 
68.9897 98 42 69 97.9897 42 59 99 41.9897 
60 99 41.9897 60.0103 99 42 68.9897 99 42 
59 100 41.9897 60 100 41.9897 61 99.9897 42 
61 100 41.9897 62 99.9897 42 62 100 41.9897 
62.0103 100 42 68.9897 100 42 62.0103 101 42 
67.9897 101 42 68 100.99 42 63 101.99 42 
64 101.99 42 65 102 41.0103 64.0103 102 42 
66 102 41.0103 66.9897 102 42 67 101.99 42 
65 103 41.0103 64.0103 103 42 65.9897 103 42 
66 102.99 42 65 103.99 42 66 80.0103 43 
65.0103 81 43 67 81 42.0103 67 80.0103 43 
68 81 42.0103 68 80.0103 43 68.9897 81 43 
65 81.0103 43 64.0103 82 43 68.9897 82 43 
64 82.0103 43 63.0103 83 43 68.9897 83 43 
63 83.0103 43 62.0103 84 43 68.9897 84 43 
62 84.0103 43 61.0103 85 43 68.9897 85 43 
60 86 42.0103 60 85.0103 43 59.0103 86 43 
61 85.0103 43 68.9897 86 43 59 87 42.0103 
59 86.0103 43 58.0103 87 43 69 86.0103 43 
69 87 42.0103 70 87 42.0103 70 86.0103 43 
70.9897 87 43 58 88 42.0103 58 87.0103 43 
57.0103 88 43 70.9897 88 43 58 89 42.0103 
57.0103 89 43 70.9897 89 43 58 90 42.0103 
57.0103 90 43 70.9897 90 43 57 91 42.0103 
57 90.0103 43 56.0103 91 43 70.9897 91 43 
[...]
POINT_DATA 4872
SCALARS scalars float
LOOKUP_TABLE default
1 1 1 1 1 1 1 1 1 
1 1 1 1 1 1 1 1 1 
1 1 1 1 1 1 1 1 1 
1 1 1 1 1 1 1 1 1 
1 1 1 1 1 1 1 1 1 
1 1 1 1 1 1 1 1 1 
1 1 1 1 1 1 1 1 1 
1 1 1 1 1 1 1 1 1 
1 1 1 1 1 1 1 1 1 
1 1 1 1 1 1 1 1 1 
1 1 1 1 1 1 1 1 1 
1 1 1 1 1 1 1 1 1 
1 1 1 1 1 1 1 1 1 
1 1 1 1 1 1 1 1 1 
1 1 1 1 1 1 1 1 1 
1 1 1 1 1 1 1 1 1 
1 1 1 1 1 1 1 1 1 
1 1 1 1 1 1 1 1 1 
1 1 1 1 1 1 1 1 1 
1 1 1 1 1 1 1 1 1 
1 1 1 1 1 1 1 1 1 
1 1 1 1 1 1 1 1 1 
1 1 1 1 1 1 1 1 1 
1 1 1 1 1 1 1 1 1 
1 1 1 1 1 1 1 1 1 
1 1 1 1 1 1 1 1 1 
1 1 1 1 1 1 1 1 1 
1 1 1 1 1 1 1 1 1 
1 1 1 1 1 1 1 1 1 
1 1 1 1 1 1 1 1 1 
1 1 1 1 1 1 1 1 1 
1 1 1 1 1 1 1 1 1 
1 1 1 1 1 1 1 1 1 
1 1 1 1 1 1 1 1 1 
1 1 1 1 1 1 1 1 1 
1 1 1 1 1 1 1 1 1 
1 1 1 1 1 1 1 1 1 
1 1 1 1 1 1 1 1 1 
1 1 1 1 1 1 1 1 1 
1 1 1 1 1 1 1 1 1 
1 1 1 1 1 1 1 1 1 
1 1 1 1 1 1 1 1 1 
1 1 1 1 1 1 1 1 1 
1 1 1 1 1 1 1 1 1 
1 1 1 1 1 1 1 1 1 
1 1 1 1 1 1 1 1 1 
1 1 1 1 1 1 1 1 1 
1 1 1 1 1 1 1 1 1 
1 1 1 1 1 1 1 1 1 
1 1 1 1 1 1 1 1 1 
1 1 1 1 1 1 1 1 1 
1 1 1 1 1 1 1 1 1 
1 1 1 1 1 1 1 1 1 
1 1 1 1 1 1 1 1 1 
1 1 1 1 1 1 1 1 1 
1 1 1 1 1 1 1 1 1 
1 1 1 1 1 1 1 1 1 
1 1 1 1 1 1 1 1 1 
1 1 1 1 1 1 1 1 1 
1 1 1 1 1 1 1 1 1 
1 1 1 1 1 1 1 1 1 
1 1 1 1 1 1 1 1 1 
1 1 1 1 1 1 1 1 1 
1 1 1 1 1 1 1 1 1 
1 1 1 1 1 1 1 1 1 
1 1 1 1 1 1 1 1 1 
1 1 1 1 1 1 1 1 1 
1 1 1 1 1 1 1 1 1 
1 1 1 1 1 1 1 1 1 
1 1 1 1 1 1 1 1 1 
1 1 1 1 1 1 1 1 1 
1 1 1 1 1 1 1 1 1 
1 1 1 1 1 1 1 1 1 
1 1 1 1 1 1 1 1 1 
1 1 1 1 1 1 1 1 1 
1 1 1 1 1 1 1 1 1 
1 1 1 1 1 1 1 1 1 
1 1 1 1 1 1 1 1 1 
1 1 1 1 1 1 1 1 1 
1 1 1 1 1 1 1 1 1 
1 1 1 1 1 1 1 1 1 
1 1 1 1 1 1 1 1 1 
1 1 1 1 1 1 1 1 1 
1 1 1 1 1 1 1 1 1 
1 1 1 1 1 1 1 1 1 
1 1 1 1 1 1 1 1 1 
1 1 1 1 1 1 1 1 1 
1 1 1 1 1 1 1 1 1 
1 1 1 1 1 1 1 1 1 
1 1 1 1 1 1 1 1 1 
1 1 1 1 1 1 1 1 1 
1 1 1 1 1 1 1 1 1 
1 1 1 1 1 1 1 1 1 
1 1 1 1 1 1 1 1 1 
1 1 1 1 1 1 1 1 1 
1 1 1 1 1 1 1 1 1 
1 1 1 1 1 1 1 1 1 
1 1 1 1 1 1 1 1 1 
1 1 1 1 1 1 1 1 1 
1 1 1 1 1 1 1 1 1 
1 1 1 1 1 1 1 1 1 
1 1 1 1 1 1 1 1 1 
1 1 1 1 1 1 1 1 1 
1 1 1 1 1 1 1 1 1 
1 1 1 1 1 1 1 1 1 
1 1 1 1 1 1 1 1 1 
1 1 1 1 1 1 1 1 1 
1 1 1 1 1 1 1 1 1 
1 1 1 1 1 1 1 1 1 
1 1 1 1 1 1 1 1 1 
1 1 1 1 1 1 1 1 1 
1 1 1 1 1 1 1 1 1 
1 1 1 1 1 1 1 1 1 
1 1 1 1 1 1 1 1 1 
1 1 1 1 1 1 1 1 1 
1 1 1 1 1 1 1 1 1 
1 1 1 1 1 1 1 1 1 
1 1 1 1 1 1 1 1 1 
1 1 1 1 1 1 1 1 1 
1 1 1 1 1 1 1 1 1 
1 1 1 1 1 1 1 1 1 
1 1 1 1 1 1 1 1 1 
1 1 1 1 1 1 1 1 1 
1 1 1 1 1 1 1 1 1 
1 1 1 1 1 1 1 1 1 
1 1 1 1 1 1 1 1 1 
1 1 1 1 1 1 1 1 1 
1 1 1 1 1 1 1 1 1 
1 1 1 1 1 1 1 1 1 
1 1 1 1 1 1 1 1 1 
1 1 1 1 1 1 1 1 1 
1 1 1 1 1 1 1 1 1 
1 1 1 1 1 1 1 1 1 
1 1 1 1 1 1 1 1 1 
1 1 1 1 1 1 1 1 1 
1 1 1 1 1 1 1 1 1 
1 1 1 1 1 1 1 1 1 
1 1 1 1 1 1 1 1 1 
1 1 1 1 1 1 1 1 1 
1 1 1 1 1 1 1 1 1 
1 1 1 1 1 1 1 1 1 
1 1 1 1 1 1 1 1 1 
1 1 1 1 1 1 1 1 1 
1 1 1 1 1 1 1 1 1 
1 1 1 1 1 1 1 1 1 
1 1 1 1 1 1 1 1 1 
1 1 1 1 1 1 1 1 1 
1 1 1 1 1 1 1 1 1 
1 1 1 1 1 1 1 1 1 
1 1 1 1 1 1 1 1 1 
1 1 1 1 1 1 1 1 1 
1 1 1 1 1 1 1 1 1 
1 1 1 1 1 1 1 1 1 
1 1 1 1 1 1 1 1 1 
1 1 1 1 1 1 1 1 1 
1 1 1 1 1 1 1 1 1 
1 1 1 1 1 1 1 1 1 
1 1 1 1 1 1 1 1 1 
1 1 1 1 1 1 1 1 1 
1 1 1 1 1 1 1 1 1 
1 1 1 1 1 1 1 1 1 
1 1 1 1 1 1 1 1 1 
1 1 1 1 1 1 1 1 1 
1 1 1 1 1 1 1 1 1 
1 1 1 1 1 1 1 1 1 
1 1 1 1 1 1 1 1 1 
1 1 1 1 1 1 1 1 1 
1 1 1 1 1 1 1 1 1 
1 1 1 1 1 1 1 1 1 
1 1 1 1 1 1 1 1 1 
1 1 1 1 1 1 1 1 1 
1 1 1 1 1 1 1 1 1 
1 1 1 1 1 1 1 1 1 
1 1 1 1 1 1 1 1 1 
1 1 1 1 1 1 1 1 1 
1 1 1 1 1 1 1 1 1 
1 1 1 1 1 1 1 1 1 
1 1 1 1 1 1 1 1 1 
1 1 1 1 1 1 1 1 1 
1 1 1 1 1 1 1 1 1 
1 1 1 1 1 1 1 1 1 
1 1 1 1 1 1 1 1 1 
1 1 1 1 1 1 1 1 1 
1 1 1 1 1 1 1 1 1 
1 1 1 1 1 1 1 1 1 
1 1 1 1 1 1 1 1 1 
1 1 1 1 1 1 1 1 1 
1 1 1 1 1 1 1 1 1 
1 1 1 1 1 1 1 1 1 
1 1 1 1 1 1 1 1 1 
1 1 1 1 1 1 1 1 1 
1 1 1 1 1 1 1 1 1 
1 1 1 1 1 1 1 1 1 
1 1 1 1 1 1 1 1 1 
1 1 1 1 1 1 1 1 1 
1 1 1 1 1 1 1 1 1 
1 1 1 1 1 1 1 1 1 
1 1 1 1 1 1 1 1 1 
1 1 1 1 1 1 1 1 1 
1 1 1 1 1 1 1 1 1 
1 1 1 1 1 1 1 1 1 
1 1 1 1 1 1 1 1 1 
1 1 1 1 1 1 1 1 1 
1 1 1 1 1 1 1 1 1 
1 1 1 1 1 1 1 1 1 
1 1 1 1 1 1 1 1 1 
1 1 1 1 1 1 1 1 1 
1 1 1 1 1 1 1 1 1 
1 1 1 1 1 1 1 1 1 
1 1 1 1 1 1 1 1 1 
1 1 1 1 1 1 1 1 1 
1 1 1 1 1 1 1 1 1 
1 1 1 1 1 1 1 1 1 
1 1 1 1 1 1 1 1 1 
1 1 1 1 1 1 1 1 1 
1 1 1 1 1 1 1 1 1 
1 1 1 1 1 1 1 1 1 
1 1 1 1 1 1 1 1 1 
1 1 1 1 1 1 1 1 1 
1 1 1 1 1 1 1 1 1 
1 1 1 1 1 1 1 1 1 
1 1 1 1 1 1 1 1 1 
1 1 1 1 1 1 1 1 1 
1 1 1 1 1 1 1 1 1 
1 1 1 1 1 1 1 1 1 
1 1 1 1 1 1 1 1 1 
1 1 1 1 1 1 1 1 1 
1 1 1 1 1 1 1 1 1 
1 1 1 1 1 1 1 1 1 
1 1 1 1 1 1 1 1 1 
1 1 1 1 1 1 1 1 1 
1 1 1 1 1 1 1 1 1 
1 1 1 1 1 1 1 1 1 
1 1 1 1 1 1 1 1 1 
1 1 1 1 1 1 1 1 1 
1 1 1 1 1 1 1 1 1 
1 1 1 1 1 1 1 1 1 
1 1 1 1 1 1 1 1 1 
1 1 1 1 1 1 1 1 1 
1 1 1 1 1 1 1 1 1 
1 1 1 1 1 1 1 1 1 
1 1 1 1 1 1 1 1 1 
1 1 1 1 1 1 1 1 1 
1 1 1 1 1 1 1 1 1 
1 1 1 1 1 1 1 1 1 
1 1 1 1 1 1 1 1 1 
1 1 1 1 1 1 1 1 1 
1 1 1 1 1 1 1 1 1 
1 1 1 1 1 1 1 1 1 
1 1 1 1 1 1 1 1 1 
1 1 1 1 1 1 1 1 1 
1 1 1 1 1 1 1 1 1 
1 1 1 1 1 1 1 1 1 
1 1 1 1 1 1 1 1 1 
1 1 1 1 1 1 1 1 1 
1 1 1 1 1 1 1 1 1 
1 1 1 1 1 1 1 1 1 
1 1 1 1 1 1 1 1 1 
1 1 1 1 1 1 1 1 1 
1 1 1 1 1 1 1 1 1 
1 1 1 1 1 1 1 1 1 
1 1 1 1 1 1 1 1 1 
1 1 1 1 1 1 1 1 1 
1 1 1 1 1 1 1 1 1 
1 1 1 1 1 1 1 1 1 
1 1 1 1 1 1 1 1 1 
1 1 1 1 1 1 1 1 1 
1 1 1 1 1 1 1 1 1 
1 1 1 1 1 1 1 1 1 
1 1 1 1 1 1 1 1 1 
1 1 1 1 1 1 1 1 1 
1 1 1 1 1 1 1 1 1 
1 1 1 1 1 1 1 1 1 
1 1 1 1 1 1 1 1 1 
1 1 1 1 1 1 1 1 1 
1 1 1 1 1 1 1 1 1 
1 1 1 1 1 1 1 1 1 
1 1 1 1 1 1 1 1 1 
1 1 1 1 1 1 1 1 1 
1 1 1 1 1 1 1 1 1 
1 1 1 1 1 1 1 1 1 
1 1 1 1 1 1 1 1 1 
1 1 1 1 1 1 1 1 1 
1 1 1 1 1 1 1 1 1 
1 1 1 1 1 1 1 1 1 
1 1 1 1 1 1 1 1 1 
1 1 1 1 1 1 1 1 1 
1 1 1 1 1 1 1 1 1 
1 1 1 1 1 1 1 1 1 
1 1 1 1 1 1 1 1 1 
1 1 1 1 1 1 1 1 1 
1 1 1 1 1 1 1 1 1 
1 1 1 1 1 1 1 1 1 
1 1 1 1 1 1 1 1 1 
1 1 1 1 1 1 1 1 1 
1 1 1 1 1 1 1 1 1 
1 1 1 1 1 1 1 1 1 
1 1 1 1 1 1 1 1 1 
1 1 1 1 1 1 1 1 1 
1 1 1 1 1 1 1 1 1 
1 1 1 1 1 1 1 1 1 
1 1 1 1 1 1 1 1 1 
1 1 1 1 1 1 1 1 1 
1 1 1 1 1 1 1 1 1 
1 1 1 1 1 1 1 1 1 
1 1 1 1 1 1 1 1 1 
1 1 1 1 1 1 1 1 1 
1 1 1 1 1 1 1 1 1 
1 1 1 1 1 1 1 1 1 
1 1 1 1 1 1 1 1 1 
1 1 1 1 1 1 1 1 1 
1 1 1 1 1 1 1 1 1 
1 1 1 1 1 1 1 1 1 
1 1 1 1 1 1 1 1 1 
1 1 1 1 1 1 1 1 1 
1 1 1 1 1 1 1 1 1 
1 1 1 1 1 1 1 1 1 
1 1 1 1 1 1 1 1 1 
1 1 1 1 1 1 1 1 1 
1 1 1 1 1 1 1 1 1 
1 1 1 1 1 1 1 1 1 
1 1 1 1 1 1 1 1 1 
1 1 1 1 1 1 1 1 1 
1 1 1 1 1 1 1 1 1 
1 1 1 1 1 1 1 1 1 
1 1 1 1 1 1 1 1 1 
1 1 1 1 1 1 1 1 1 
1 1 1 1 1 1 1 1 1 
1 1 1 1 1 1 1 1 1 
1 1 1 1 1 1 1 1 1 
1 1 1 1 1 1 1 1 1 
1 1 1 1 1 1 1 1 1 
1 1 1 1 1 1 1 1 1 
1 1 1 1 1 1 1 1 1 
1 1 1 1 1 1 1 1 1 
1 1 1 1 1 1 1 1 1 
1 1 1 1 1 1 1 1 1 
1 1 1 1 1 1 1 1 1 
1 1 1 1 1 1 1 1 1 
1 1 1 1 1 1 1 1 1 
1 1 1 1 1 1 1 1 1 
1 1 1 1 1 1 1 1 1 
1 1 1 1 1 1 1 1 1 
1 1 1 1 1 1 1 1 1 
1 1 1 1 1 1 1 1 1 
1 1 1 1 1 1 1 1 1 
1 1 1 1 1 1 1 1 1 
1 1 1 1 1 1 1 1 1 
1 1 1 1 1 1 1 1 1 
1 1 1 1 1 1 1 1 1 
1 1 1 1 1 1 1 1 1 
1 1 1 1 1 1 1 1 1 
1 1 1 1 1 1 1 1 1 
1 1 1 1 1 1 1 1 1 
1 1 1 1 1 1 1 1 1 
1 1 1 1 1 1 1 1 1 
1 1 1 1 1 1 1 1 1 
1 1 1 1 1 1 1 1 1 
1 1 1 1 1 1 1 1 1 
1 1 1 1 1 1 1 1 1 
1 1 1 1 1 1 1 1 1 
1 1 1 1 1 1 1 1 1 
1 1 1 1 1 1 1 1 1 
1 1 1 1 1 1 1 1 1 
1 1 1 1 1 1 1 1 1 
1 1 1 1 1 1 1 1 1 
1 1 1 1 1 1 1 1 1 
1 1 1 1 1 1 1 1 1 
1 1 1 1 1 1 1 1 1 
1 1 1 1 1 1 1 1 1 
1 1 1 1 1 1 1 1 1 
1 1 1 1 1 1 1 1 1 
1 1 1 1 1 1 1 1 1 
1 1 1 1 1 1 1 1 1 
1 1 1 1 1 1 1 1 1 
1 1 1 1 1 1 1 1 1 
1 1 1 1 1 1 1 1 1 
1 1 1 1 1 1 1 1 1 
1 1 1 1 1 1 1 1 1 
1 1 1 1 1 1 1 1 1 
1 1 1 1 1 1 1 1 1 
1 1 1 1 1 1 1 1 1 
1 1 1 1 1 1 1 1 1 
1 1 1 1 1 1 1 1 1 
1 1 1 1 1 1 1 1 1 
1 1 1 1 1 1 1 1 1 
1 1 1 1 1 1 1 1 1 
1 1 1 1 1 1 1 1 1 
1 1 1 1 1 1 1 1 1 
1 1 1 1 1 1 1 1 1 
1 1 1 1 1 1 1 1 1 
1 1 1 1 1 1 1 1 1 
1 1 1 1 1 1 1 1 1 
1 1 1 1 1 1 1 1 1 
1 1 1 1 1 1 1 1 1 
1 1 1 1 1 1 1 1 1 
1 1 1 1 1 1 1 1 1 
1 1 1 1 1 1 1 1 1 
1 1 1 1 1 1 1 1 1 
1 1 1 1 1 1 1 1 1 
1 1 1 1 1 1 1 1 1 
1 1 1 1 1 1 1 1 1 
1 1 1 1 1 1 1 1 1 
1 1 1 1 1 1 1 1 1 
1 1 1 1 1 1 1 1 1 
1 1 1 1 1 1 1 1 1 
1 1 1 1 1 1 1 1 1 
1 1 1 1 1 1 1 1 1 
1 1 1 1 1 1 1 1 1 
1 1 1 1 1 1 1 1 1 
1 1 1 1 1 1 1 1 1 
1 1 1 1 1 1 1 1 1 
1 1 1 1 1 1 1 1 1 
1 1 1 1 1 1 1 1 1 
1 1 1 1 1 1 1 1 1 
1 1 1 1 1 1 1 1 1 
1 1 1 1 1 1 1 1 1 
1 1 1 1 1 1 1 1 1 
1 1 1 1 1 1 1 1 1 
1 1 1 1 1 1 1 1 1 
1 1 1 1 1 1 1 1 1 
1 1 1 1 1 1 1 1 1 
1 1 1 1 1 1 1 1 1 
1 1 1 1 1 1 1 1 1 
1 1 1 1 1 1 1 1 1 
1 1 1 1 1 1 1 1 1 
1 1 1 1 1 1 1 1 1 
1 1 1 1 1 1 1 1 1 
1 1 1 1 1 1 1 1 1 
1 1 1 1 1 1 1 1 1 
1 1 1 1 1 1 1 1 1 
1 1 1 1 1 1 1 1 1 
1 1 1 1 1 1 1 1 1 
1 1 1 1 1 1 1 1 1 
1 1 1 1 1 1 1 1 1 
1 1 1 1 1 1 1 1 1 
1 1 1 1 1 1 1 1 1 
1 1 1 1 1 1 1 1 1 
1 1 1 1 1 1 1 1 1 
1 1 1 1 1 1 1 1 1 
1 1 1 1 1 1 1 1 1 
1 1 1 1 1 1 1 1 1 
1 1 1 1 1 1 1 1 1 
1 1 1 1 1 1 1 1 1 
1 1 1 1 1 1 1 1 1 
1 1 1 1 1 1 1 1 1 
1 1 1 1 1 1 1 1 1 
1 1 1 1 1 1 1 1 1 
1 1 1 1 1 1 1 1 1 
1 1 1 1 1 1 1 1 1 
1 1 1 1 1 1 1 1 1 
1 1 1 1 1 1 1 1 1 
1 1 1 1 1 1 1 1 1 
1 1 1 1 1 1 1 1 1 
1 1 1 1 1 1 1 1 1 
1 1 1 1 1 1 1 1 1 
1 1 1 1 1 1 1 1 1 
1 1 1 1 1 1 1 1 1 
1 1 1 1 1 1 1 1 1 
1 1 1 1 1 1 1 1 1 
1 1 1 1 1 1 1 1 1 
1 1 1 1 1 1 1 1 1 
1 1 1 1 1 1 1 1 1 
1 1 1 1 1 1 1 1 1 
1 1 1 1 1 1 1 1 1 
1 1 1 1 1 1 1 1 1 
1 1 1 1 1 1 1 1 1 
1 1 1 1 1 1 1 1 1 
1 1 1 1 1 1 1 1 1 
1 1 1 1 1 1 1 1 1 
1 1 1 1 1 1 1 1 1 
1 1 1 1 1 1 1 1 1 
1 1 1 1 1 1 1 1 1 
1 1 1 1 1 1 1 1 1 
1 1 1 1 1 1 1 1 1 
1 1 1 1 1 1 1 1 1 
1 1 1 1 1 1 1 1 1 
1 1 1 1 1 1 1 1 1 
1 1 1 1 1 1 1 1 1 
1 1 1 1 1 1 1 1 1 
1 1 1 1 1 1 1 1 1 
1 1 1 1 1 1 1 1 1 
1 1 1 1 1 1 1 1 1 
1 1 1 1 1 1 1 1 1 
1 1 1 1 1 1 1 1 1 
1 1 1 1 1 1 1 1 1 
1 1 1 1 1 1 1 1 1 
1 1 1 1 1 1 1 1 1 
1 1 1 1 1 1 1 1 1 
1 1 1 1 1 1 1 1 1 
1 1 1 1 1 1 1 1 1 
1 1 1 1 1 1 1 1 1 
1 1 1 1 1 1 1 1 1 
1 1 1 1 1 1 1 1 1 
1 1 1 1 1 1 1 1 1 
1 1 1 1 1 1 1 1 1 
1 1 1 1 1 1 1 1 1 
1 1 1 1 1 1 1 1 1 
1 1 1 1 1 1 1 1 1 
1 1 1 1 1 1 1 1 1 
1 1 1 1 1 1 1 1 1 
1 1 1 1 1 1 1 1 1 
1 1 1 1 1 1 1 1 1 
1 1 1 1 1 1 1 1 1 
1 1 1 1 1 1 1 1 1 
1 1 1 1 1 1 1 1 1 
1 1 1 1 1 1 1 1 1 
1 1 1 1 1 1 1 1 1 
1 1 1 1 1 1 1 1 1 
1 1 1 1 1 1 1 1 1 
1 1 1 1 1 1 1 1 1 
1 1 1 1 1 1 1 1 1 
1 1 1 1 1 1 1 1 1 
1 1 1 1 1 1 1 1 1 
1 1 1 1 1 1 1 1 1 
1 1 1 1 1 1 1 1 1 
1 1 1 1 1 1 1 1 1 
1 1 1 1 1 1 1 1 1 
1 1 1 1 1 1 1 1 1 
1 1 1 1 1 1 1 1 1 
1 1 1 1 1 1 1 1 1 
1 1 1 1 1 1 1 1 1 
1 1 1 1 1 1 1 1 1 
1 1 1 1 1 1 1 1 1 
1 1 1 1 1 1 1 1 1 
1 1 1 1 1 1 1 1 1 
1 1 1 1 1 1 1 1 1 
1 1 1 1 1 1 1 1 1 
1 1 1 1 1 1 1 1 1 
1 1 1 1 1 1 1 1 1 
1 1 1 1 1 1 1 1 1 
1 1 1 1 1 1 1 1 1 
1 1 1 1 1 1 1 1 1 
1 1 1 1 1 1 1 1 1 
1 1 1 1 1 1 1 1 1 
1 1 1 1 1 1 1 1 1 
1 1 1 1 1 1 1 1 1 
1 1 1 1 1 1 1 1 1 
1 1 1 1 1 1 1 1 1 
1 1 1 1 1 1 1 1 1 
1 1 1 1 1 1 1 1 1 
1 1 1 
NORMALS normals float
-0.0103082 -0.0103082 -0.999894 -0.00728957 -0.707088 -0.707088 -0.707088 -0.00728957 -0.707088 
0.0103082 -0.0103082 -0.999894 0.0103082 -0.999894 -0.0103082 0.999894 -0.0103082 -0.0103082 
-0.0103087 0 -0.999947 -0.707107 0 -0.707107 0.0103087 0 -0.999947 
0.710742 -0.703415 -0.00732724 -0.0103087 0 -0.999947 -0.579334 -0.573362 -0.579334 
0 0 -1 0.703415 -0.710742 -0.00732724 0 -0.0103087 -0.999947 
0.0103082 -0.0103082 -0.999894 0.0103082 -0.999894 -0.0103082 0.999894 -0.0103082 -0.0103082 
-0.0103082 -0.0103082 -0.999894 -0.57735 -0.57735 -0.57735 -0.57735 -0.57735 -0.57735 
0 0 -1 0 0 -1 0 0 -1 
0.0103087 0 -0.999947 0.999947 0 -0.0103087 -0.0103082 -0.0103082 -0.999894 
-0.57735 -0.57735 -0.57735 -0.707088 -0.707088 -0.00728957 0 0 -1 
0 0 -1 0 0 -1 0 0 -1 
0.0103082 0.0103082 -0.999894 0.999894 0.0103082 -0.0103082 -0.0103082 -0.0103082 -0.999894 
-0.707088 -0.707088 -0.00728957 -0.707088 -0.707088 -0.00728957 0 0 -1 
0 0 -1 0 0 -1 0 0 -1 
0.0103082 0.0103082 -0.999894 0.57735 0.57735 -0.57735 0.57735 0.57735 -0.57735 
-0.0103082 -0.0103082 -0.999894 -0.707088 -0.707088 -0.00728957 -0.999894 -0.0103082 -0.0103082 
0 0 -1 0 0 -1 0 0 -1 
0 0 -1 0.0103087 0 -0.999947 0.710742 0.703415 -0.00732724 
0.707088 0.707088 -0.00728957 -0.0103082 0.0103082 -0.999894 -0.999894 0.0103082 -0.0103082 
0 0.0103087 -0.999947 0 0 -1 0 0 -1 
0 0 -1 0.0103087 0 -0.999947 0.999947 0 -0.0103087 
-0.0103082 0.999894 -0.0103082 -0.573362 0.579334 -0.579334 -0.579334 0.573362 -0.579334 
-0.0103087 0 -0.999947 0 0 -1 0 0 -1 
0.0103082 0.0103082 -0.999894 0.999894 0.0103082 -0.0103082 -0.0103082 0.0103082 -0.999894 
-0.707088 0.00728957 -0.707088 0 0.0103087 -0.999947 0.0103082 0.0103082 -0.999894 
0.57735 0.57735 -0.57735 0.57735 0.57735 -0.57735 -0.0103082 0.999894 -0.0103082 
0 0.999947 -0.0103087 0.0103082 0.999894 -0.0103082 -0.0103082 -0.0103082 -0.999894 
-0.0103082 -0.999894 -0.0103082 -0.999894 -0.0103082 -0.0103082 0.00728957 -0.707088 -0.707088 
0.00728957 -0.707088 -0.707088 0.57735 -0.57735 -0.57735 -0.707107 0 -0.707107 
-0.707107 0 -0.707107 0.579334 -0.579334 -0.573362 0.999947 -0.0103087 0 
-0.707107 0 -0.707107 -0.707107 0 -0.707107 0.710761 -0.703434 0 
-0.579334 -0.573362 -0.579334 -0.579334 -0.573362 -0.579334 0.703434 -0.710761 0 
0.0103087 -0.999947 0 0.999947 -0.0103087 0 -0.57735 -0.57735 -0.57735 
-0.57735 -0.57735 -0.57735 -0.999894 -0.0103082 -0.0103082 1 0 0 
-0.710761 -0.703434 0 0.710761 0 -0.703434 -0.707107 -0.707107 0 
-0.707107 -0.707107 0 0.57735 0.57735 -0.57735 0.707088 0.00728957 -0.707088 
-0.707107 -0.707107 0 -0.999947 -0.0103087 0 0.581339 0.575346 -0.575346 
0.575346 0.581339 -0.575346 0.00728957 0.707088 -0.707088 -0.999947 0.0103087 0 
0.710761 0 -0.703434 -0.579334 0.579334 -0.573362 -0.579334 0.573362 -0.579334 
-0.579334 0.573362 -0.579334 0.710761 0 -0.703434 -0.707088 0.00728957 -0.707088 
-0.707088 0.00728957 -0.707088 0.57735 0.57735 -0.57735 0.707088 0.00728957 -0.707088 
-0.00728957 0.707088 -0.707088 0 0.710761 -0.703434 0 0.710761 -0.703434 
0 0.710761 -0.703434 0.00728957 0.707088 -0.707088 -0.00728957 -0.707088 -0.707088 
-0.00728957 -0.707088 -0.707088 -0.707088 -0.707088 -0.00728957 0.0103082 -0.0103082 -0.999894 
0.00728957 -0.707088 -0.707088 0.999894 -0.0103082 -0.0103082 -0.707107 -0.707107 0 
-0.707107 -0.707107 0 0.579334 -0.573362 -0.579334 0.999947 0 -0.0103087 
-0.707088 -0.00728957 -0.707088 -0.707088 -0.707088 -0.00728957 -0.999894 -0.0103082 -0.0103082 
1 0 0 -0.707107 0 -0.707107 -0.707107 0 -0.707107 
0.581339 -0.575346 -0.575346 -0.579334 -0.573362 -0.579334 -0.707107 0 -0.707107 
0.575346 -0.581339 -0.575346 0.00732724 -0.710742 -0.703415 0.999947 -0.0103087 0 
-0.710761 0 -0.703434 0.581339 -0.575346 -0.575346 -0.581339 -0.575346 -0.575346 
0.573362 -0.579334 -0.579334 0.703415 -0.00732724 -0.710742 0.0103082 -0.0103082 -0.999894 
0.0103082 -0.999894 -0.0103082 0.999894 -0.0103082 -0.0103082 -0.579334 -0.579334 -0.573362 
-0.579334 -0.579334 -0.573362 0.703434 0 -0.710761 0.0103087 0 -0.999947 
0.999947 0 -0.0103087 -0.579334 -0.579334 -0.573362 -0.999947 -0.0103087 0 
0.575346 0.575346 -0.581339 0 0.703434 -0.710761 0 0 -1 
0.0103087 0 -0.999947 0.999947 0 -0.0103087 -1 0 0 
0.703434 0 -0.710761 0 0 -1 0 0 -1 
0.0103087 0 -0.999947 0.999947 0 -0.0103087 -0.579334 0.573362 -0.579334 
-0.710742 -0.703415 -0.00732724 0.703434 0 -0.710761 0 0 -1 
0 0 -1 0.0103082 0.0103082 -0.999894 0.999894 0.0103082 -0.0103082 
-0.0103082 -0.0103082 -0.999894 -0.707088 -0.707088 -0.00728957 -0.707088 -0.707088 -0.00728957 
-0.703434 0 -0.710761 0.703434 0 -0.710761 0 0 -1 
0.0103082 0.0103082 -0.999894 0.707088 0.707088 -0.00728957 0.707088 0.707088 -0.00728957 
-0.0103082 -0.0103082 -0.999894 -0.707088 -0.707088 -0.00728957 -0.999894 -0.0103082 -0.0103082 
0 0 -1 0 0 -1 0 0.703434 -0.710761 
0 0.703434 -0.710761 0 0.703434 -0.710761 0 0.703434 -0.710761 
0 0.703434 -0.710761 0 0 -1 0.0103082 0.0103082 -0.999894 
0.707088 0.707088 -0.00728957 0.707088 0.707088 -0.00728957 -0.0103082 0.0103082 -0.999894 
-0.999894 0.0103082 -0.0103082 0 0.0103087 -0.999947 0 0.0103087 -0.999947 
0 0.0103087 -0.999947 0 0.0103087 -0.999947 0 0.0103087 -0.999947 
0 0.0103087 -0.999947 0 0.0103087 -0.999947 0.0103082 0.0103082 -0.999894 
0.57735 0.57735 -0.57735 0.57735 0.57735 -0.57735 -0.0103082 0.999894 -0.0103082 
0 0.999947 -0.0103087 0 0.999947 -0.0103087 0 0.999947 -0.0103087 
0 0.999947 -0.0103087 0 0.999947 -0.0103087 0 0.999947 -0.0103087 
0 0.999947 -0.0103087 0.0103082 0.999894 -0.0103082 -0.00728957 -0.707088 -0.707088 
-0.00728957 -0.707088 -0.707088 -0.999894 -0.0103082 -0.0103082 0.00728957 -0.707088 -0.707088 
0.00728957 -0.707088 -0.707088 0.707088 -0.00728957 -0.707088 -0.710761 -0.703434 0 
0.710761 0 -0.703434 -0.707107 -0.707107 0 -0.707107 -0.707107 0 
0.710761 0 -0.703434 -0.707107 -0.707107 0 -0.707107 -0.707107 0 
0.581339 -0.575346 -0.575346 -0.707088 -0.00728957 -0.707088 -0.707088 -0.707088 -0.00728957 
-0.999894 -0.0103082 -0.0103082 0.573362 -0.579334 -0.579334 0.573362 -0.579334 -0.579334 
0.00728957 -0.707088 -0.707088 0.00728957 -0.707088 -0.707088 0.707088 -0.00728957 -0.707088 
-0.707107 0 -0.707107 -0.707107 0 -0.707107 0.581339 -0.575346 -0.575346 
-0.707107 0 -0.707107 -0.707107 0 -0.707107 0.57735 -0.57735 -0.57735 
0.57735 -0.57735 -0.57735 0.57735 -0.57735 -0.57735 -0.579334 -0.573362 -0.579334 
-0.579334 -0.573362 -0.579334 0.579334 -0.579334 -0.573362 0.999947 -0.0103087 0 
-0.57735 -0.57735 -0.57735 -0.57735 -0.57735 -0.57735 -0.999894 -0.0103082 -0.0103082 
1 0 0 -1 0 0 1 0 0 
-1 0 0 1 0 0 -0.710761 -0.703434 0 
0.999947 0.0103087 0 -0.707107 -0.707107 0 -0.707107 -0.707107 0 
0.579334 0.579334 -0.573362 0.579334 0.579334 -0.573362 -0.707107 -0.707107 0 
-0.999947 -0.0103087 0 0.581339 0.575346 -0.575346 0.579334 0.579334 -0.573362 
-0.999947 0.0103087 0 0.57735 0.57735 -0.57735 0.707088 0.00728957 -0.707088 
-0.0103087 0.999947 0 0 1 0 0 0.710761 -0.703434 
0 0.710761 -0.703434 0 0.710761 -0.703434 0 0.710761 -0.703434 
0 0.710761 -0.703434 0 0.710761 -0.703434 0 0.710761 -0.703434 
0.00728957 0.707088 -0.707088 0 -0.0103087 -0.999947 0 -0.999947 -0.0103087 
-0.703415 -0.710742 -0.00732724 0.573362 -0.579334 -0.579334 -0.00728957 -0.707088 -0.707088 
-0.707088 -0.707088 -0.00728957 -0.999894 -0.0103082 -0.0103082 0 -0.703434 -0.710761 
0.573362 -0.579334 -0.579334 0 -0.0103087 -0.999947 0.0103082 -0.0103082 -0.999894 
0.00728957 -0.707088 -0.707088 0.999894 -0.0103082 -0.0103082 -0.710761 0 -0.703434 
0.703434 0 -0.710761 0.0103087 0 -0.999947 0.999947 0 -0.0103087 
-0.581339 -0.575346 -0.575346 0.703434 0 -0.710761 0.0103087 0 -0.999947 
0.999947 0 -0.0103087 -0.579334 -0.579334 -0.573362 -0.579334 -0.579334 -0.573362 
0.703434 0 -0.710761 0.0103087 0 -0.999947 0.579334 -0.573362 -0.579334 
-0.579334 -0.579334 -0.573362 -0.579334 -0.579334 -0.573362 0.575346 -0.575346 -0.581339 
0 -0.703434 -0.710761 0.573362 -0.579334 -0.579334 0 -0.0103087 -0.999947 
0.0103082 -0.0103082 -0.999894 0.0103082 -0.999894 -0.0103082 0.999894 -0.0103082 -0.0103082 
-0.579334 -0.579334 -0.573362 -0.579334 -0.579334 -0.573362 0.703434 0 -0.710761 
0.0103087 0 -0.999947 0.999947 0 -0.0103087 -0.707088 -0.00728957 -0.707088 
-0.57735 -0.57735 -0.57735 -0.999894 -0.0103082 -0.0103082 0.575346 -0.575346 -0.581339 
0.0103087 0 -0.999947 0.999947 0 -0.0103087 -0.707107 0 -0.707107 
-0.707107 0 -0.707107 0.579334 -0.573362 -0.579334 0.999947 0 -0.0103087 
-0.579334 -0.573362 -0.579334 -0.707107 0 -0.707107 1 0 0 
-0.710761 0 -0.703434 1 0 0 -0.710761 0 -0.703434 
1 0 0 -0.710761 0 -0.703434 1 0 0 
-0.0103082 -0.0103082 -0.999894 -0.00728957 -0.707088 -0.707088 -0.999894 -0.0103082 -0.0103082 
0.0103082 -0.0103082 -0.999894 0.00728957 -0.707088 -0.707088 0.999894 -0.0103082 -0.0103082 
-0.581339 -0.575346 -0.575346 1 0 0 -0.0103082 0.0103082 -0.999894 
-0.999894 0.0103082 -0.0103082 0.0103082 0.0103082 -0.999894 0.0073651 -0.699684 -0.714414 
-0.579334 -0.579334 -0.573362 -0.00732724 -0.710742 -0.703415 0.579334 0.573362 -0.579334 
0.999947 0 -0.0103087 -0.0103082 0.999894 -0.0103082 -0.699684 0.714414 -0.0073651 
-0.714434 0.699703 0 -0.00732724 -0.710742 -0.703415 0.575346 0.575346 -0.581339 
0.0103087 0 -0.999947 0.999947 0 -0.0103087 -0.999894 0.0103082 0.0103082 
0.703434 0 -0.710761 0.0103087 0 -0.999947 0.999947 0 -0.0103087 
-0.0103082 0.999894 0.0103082 -0.703415 0.710742 0.00732724 -0.00732724 0.703415 -0.710742 
-0.710742 0.703415 -0.00732724 0 0.703434 -0.710761 0 0.703434 -0.710761 
0 0.703434 -0.710761 0 0.703434 -0.710761 0 0.703434 -0.710761 
0 0.703434 -0.710761 0 0.703434 -0.710761 0 0 -1 