# vtk DataFile Version 3.0
vtk output
ASCII
DATASET POLYDATA
POINTS 3988 float
122 34 54.0185 122 33.0185 55 121.019 34 55 
122.981 34 55 122 35 54.0185 121.019 35 55 
123 34.0185 55 123 35 54.0185 123.981 35 55 
122 35.9815 55 123 35.9815 55 128 38 54.0185 
128 37.0185 55 127.019 38 55 128.981 38 55 
128 39 54.0185 127.019 39 55 129 38.0185 55 
129 39 54.0185 129.981 39 55 128 39.9815 55 
129 39.9815 55 130 39.0185 55 129.019 40 55 
130 40 54.0185 130.981 40 55 130 41 54.0185 
129.019 41 55 131 40.0185 55 131 41 54.0185 
132 41 54.0185 132 40.0185 55 132.981 41 55 
130 41.9815 55 131 41.9815 55 131.019 42 55 
132 42 54.0185 132.981 42 55 119 43 54.0185 
119 42.0185 55 118.019 43 55 120 43 54.0185 
120 42.0185 55 120.981 43 55 132 43 54.0185 
131.019 43 55 133 42.0185 55 133 43 54.0185 
134 43 54.0185 134 42.0185 55 134.981 43 55 
119 43.9815 55 119.019 44 55 120 44 54.0185 
120.981 44 55 132 43.9815 55 133 43.9815 55 
133.019 44 55 134 44 54.0185 134.981 44 55 
120 44.9815 55 134 45 54.0185 133.019 45 55 
134.981 45 55 134 46 54.0185 133.019 46 55 
134.981 46 55 124 47 54.0185 124 46.0185 55 
123.019 47 55 125 47 54.0185 125 46.0185 55 
126 47 54.0185 126 46.0185 55 126.981 47 55 
134 47 54.0185 133.019 47 55 134.981 47 55 
124 47.9815 55 125 47.9815 55 125.019 48 55 
126 48 54.0185 126.981 48 55 134 48 54.0185 
133.019 48 55 134.981 48 55 126 48.9815 55 
128 49 54.0185 128 48.0185 55 127.019 49 55 
129 49 54.0185 129 48.0185 55 130 49 54.0185 
130 48.0185 55 131 49 54.0185 131 48.0185 55 
132 49 54.0185 132 48.0185 55 133 49 54.0185 
133 48.0185 55 134 49 54.0185 135 48.0185 55 
135 49 54.0185 136 49 54.0185 136 48.0185 55 
136.981 49 55 128 49.9815 55 129 49.9815 55 
130 49.9815 55 131 49.9815 55 132 49.9815 55 
133 49.9815 55 134 49.9815 55 135 49.9815 55 
135.019 50 55 136 50 54.0185 136.981 50 55 
136 51 54.0185 135.019 51 55 137 50.0185 55 
137 51 54.0185 137.981 51 55 136 51.9815 55 
137 51.9815 55 142 59 54.0185 142 58.0185 55 
141.019 59 55 142.981 59 55 142 60 54.0185 
141.019 60 55 142.981 60 55 138 61 54.0185 
138 60.0185 55 137.019 61 55 139 61 54.0185 
139 60.0185 55 140 61 54.0185 140 60.0185 55 
140.981 61 55 142 60.9815 55 138 62 54.0185 
137.019 62 55 138.981 62 55 139 61.9815 55 
140 61.9815 55 136 63 54.0185 136 62.0185 55 
135.019 63 55 137 63 54.0185 137 62.0185 55 
138 62.9815 55 137.981 63 55 136 64 54.0185 
135.019 64 55 136.981 64 55 137 63.9815 55 
136 64.9815 55 122 33 55.0185 122 32.0185 56 
121.019 33 56 122.981 33 56 121 34 55.0185 
121 33.0185 56 120.019 34 56 123 34 55.0185 
123 33.0185 56 124 34 55.0185 124 33.0185 56 
124.981 34 56 120 35 55.0185 120 34.0185 56 
119.019 35 56 121 35 55.0185 124 35 55.0185 
124.981 35 56 119 36 55.0185 119 35.0185 56 
118.019 36 56 120 36 55.0185 121 36 55.0185 
122 36 55.0185 123 36 55.0185 124 36 55.0185 
125 35.0185 56 125 36 55.0185 126 36 55.0185 
126 35.0185 56 126.981 36 56 118 37 55.0185 
118 36.0185 56 117.019 37 56 119 37 55.0185 
120 37 55.0185 121 37 55.0185 122 37 55.0185 
123 37 55.0185 124 37 55.0185 125 37 55.0185 
126 37 55.0185 126.981 37 56 117 38 55.0185 
117 37.0185 56 116.019 38 56 118 38 55.0185 
119 38 55.0185 120 38 55.0185 121 38 55.0185 
122 38 55.0185 123 38 55.0185 124 38 55.0185 
125 38 55.0185 126 38 55.0185 127 37.0185 56 
127 38 55.0185 128 37.0185 56 129 38 55.0185 
129 37.0185 56 130 38 55.0185 130 37.0185 56 
130.981 38 56 116 39 55.0185 116 38.0185 56 
115.019 39 56 117 39 55.0185 118 39 55.0185 
119 39 55.0185 120 39 55.0185 121 39 55.0185 
122 39 55.0185 123 39 55.0185 124 39 55.0185 
125 39 55.0185 126 39 55.0185 127 39 55.0185 
130 39 55.0185 130.981 39 56 116 39.9815 56 
116.019 40 56 117 40 55.0185 118 40 55.0185 
119 40 55.0185 120 40 55.0185 121 40 55.0185 
122 40 55.0185 123 40 55.0185 124 40 55.0185 
125 40 55.0185 126 40 55.0185 127 40 55.0185 
128 40 55.0185 129 40 55.0185 131 40 55.0185 
131 39.0185 56 132 40 55.0185 132 39.0185 56 
133 40 55.0185 133 39.0185 56 134 40 55.0185 
134 39.0185 56 134.981 40 56 117 41 55.0185 
116.019 41 56 118 41 55.0185 119 41 55.0185 
120 41 55.0185 121 41 55.0185 122 41 55.0185 
123 41 55.0185 124 41 55.0185 125 41 55.0185 
126 41 55.0185 127 41 55.0185 128 41 55.0185 
129 41 55.0185 133 41 55.0185 134 41 55.0185 
134.981 41 56 117 41.9815 56 118 41.9815 56 
118.019 42 56 119 42 55.0185 120 42 55.0185 
121 42 55.0185 122 42 55.0185 123 42 55.0185 
124 42 55.0185 125 42 55.0185 126 42 55.0185 
127 42 55.0185 128 42 55.0185 129 42 55.0185 
130 42 55.0185 131 42 55.0185 133 42 55.0185 
134 42 55.0185 135 41.0185 56 135 42 55.0185 
136 42 55.0185 136 41.0185 56 136.981 42 56 
118.019 43 56 121 43 55.0185 122 43 55.0185 
123 43 55.0185 124 43 55.0185 125 43 55.0185 
126 43 55.0185 127 43 55.0185 128 43 55.0185 
129 43 55.0185 130 43 55.0185 131 43 55.0185 
135 43 55.0185 136 43 55.0185 136.981 43 56 
119 44 55.0185 118.019 44 56 121 44 55.0185 
122 44 55.0185 123 44 55.0185 124 44 55.0185 
125 44 55.0185 126 44 55.0185 127 44 55.0185 
128 44 55.0185 129 44 55.0185 130 44 55.0185 
131 44 55.0185 132 44 55.0185 133 44 55.0185 
135 44 55.0185 136 44 55.0185 136.981 44 56 
119 45 55.0185 118.019 45 56 120 45 55.0185 
121 45 55.0185 122 45 55.0185 123 45 55.0185 
124 45 55.0185 125 45 55.0185 126 45 55.0185 
127 45 55.0185 128 45 55.0185 129 45 55.0185 
130 45 55.0185 131 45 55.0185 132 45 55.0185 
133 45 55.0185 135 45 55.0185 136 45 55.0185 
136.981 45 56 119 45.9815 56 120 45.9815 56 
121 45.9815 56 122 45.9815 56 122.019 46 56 
123 46 55.0185 124 46 55.0185 125 46 55.0185 
126 46 55.0185 127 46 55.0185 128 46 55.0185 
129 46 55.0185 130 46 55.0185 131 46 55.0185 
132 46 55.0185 133 46 55.0185 135 46 55.0185 
136 46 55.0185 137 45.0185 56 137 46 55.0185 
138 46 55.0185 138 45.0185 56 138.981 46 56 
123 47 55.0185 122.019 47 56 127 47 55.0185 
128 47 55.0185 129 47 55.0185 130 47 55.0185 
131 47 55.0185 132 47 55.0185 133 47 55.0185 
135 47 55.0185 136 47 55.0185 137 47 55.0185 
138 47 55.0185 138.981 47 56 123 47.9815 56 
124 47.9815 56 125 48 55.0185 124.019 48 56 
127 48 55.0185 128 48 55.0185 129 48 55.0185 
130 48 55.0185 131 48 55.0185 132 48 55.0185 
133 48 55.0185 135 48 55.0185 136 48 55.0185 
137 48 55.0185 138 48 55.0185 138.981 48 56 
125 49 55.0185 124.019 49 56 126 49 55.0185 
127 49 55.0185 137 49 55.0185 138 49 55.0185 
138.981 49 56 125 49.9815 56 126 49.9815 56 
127 49.9815 56 128 49.9815 56 129 50 55.0185 
128.019 50 56 130 50 55.0185 131 50 55.0185 
132 50 55.0185 133 50 55.0185 134 50 55.0185 
135 50 55.0185 137 50 55.0185 138 50 55.0185 
138.981 50 56 129 51 55.0185 128.019 51 56 
130 51 55.0185 131 51 55.0185 132 51 55.0185 
133 51 55.0185 134 51 55.0185 135 51 55.0185 
138 51 55.0185 138.981 51 56 129 52 55.0185 
128.019 52 56 130 52 55.0185 131 52 55.0185 
132 52 55.0185 133 52 55.0185 134 52 55.0185 
135 52 55.0185 136 52 55.0185 137 52 55.0185 
138 52 55.0185 138.981 52 56 129 53 55.0185 
128.019 53 56 130 53 55.0185 131 53 55.0185 
132 53 55.0185 133 53 55.0185 134 53 55.0185 
135 53 55.0185 136 53 55.0185 137 53 55.0185 
138 53 55.0185 138.981 53 56 129 54 55.0185 
128.019 54 56 130 54 55.0185 131 54 55.0185 
132 54 55.0185 133 54 55.0185 134 54 55.0185 
135 54 55.0185 136 54 55.0185 137 54 55.0185 
138 54 55.0185 139 53.0185 56 139 54 55.0185 
140 54 55.0185 140 53.0185 56 140.981 54 56 
129 55 55.0185 128.019 55 56 130 55 55.0185 
131 55 55.0185 132 55 55.0185 133 55 55.0185 
134 55 55.0185 135 55 55.0185 136 55 55.0185 
137 55 55.0185 138 55 55.0185 139 55 55.0185 
140 55 55.0185 140.981 55 56 129 56 55.0185 
128.019 56 56 130 56 55.0185 131 56 55.0185 
132 56 55.0185 133 56 55.0185 134 56 55.0185 
135 56 55.0185 136 56 55.0185 137 56 55.0185 
138 56 55.0185 139 56 55.0185 140 56 55.0185 
140.981 56 56 129 57 55.0185 128.019 57 56 
130 57 55.0185 131 57 55.0185 132 57 55.0185 
133 57 55.0185 134 57 55.0185 135 57 55.0185 
136 57 55.0185 137 57 55.0185 138 57 55.0185 
139 57 55.0185 140 57 55.0185 140.981 57 56 
129 58 55.0185 128.019 58 56 130 58 55.0185 
131 58 55.0185 132 58 55.0185 133 58 55.0185 
134 58 55.0185 135 58 55.0185 136 58 55.0185 
137 58 55.0185 138 58 55.0185 139 58 55.0185 
140 58 55.0185 141 57.0185 56 141 58 55.0185 
142 58 55.0185 142 57.0185 56 142.981 58 56 
129 59 55.0185 128.019 59 56 130 59 55.0185 
131 59 55.0185 132 59 55.0185 133 59 55.0185 
134 59 55.0185 135 59 55.0185 136 59 55.0185 
137 59 55.0185 138 59 55.0185 139 59 55.0185 
140 59 55.0185 141 59 55.0185 142.981 59 56 
129 60 55.0185 128.019 60 56 130 60 55.0185 
131 60 55.0185 132 60 55.0185 133 60 55.0185 
134 60 55.0185 135 60 55.0185 136 60 55.0185 
137 60 55.0185 138 60 55.0185 139 60 55.0185 
140 60 55.0185 141 60 55.0185 143 59.0185 56 
143 60 55.0185 144 60 55.0185 144 59.0185 56 
144.981 60 56 129 61 55.0185 128.019 61 56 
130 61 55.0185 131 61 55.0185 132 61 55.0185 
133 61 55.0185 134 61 55.0185 135 61 55.0185 
136 61 55.0185 137 61 55.0185 141 61 55.0185 
142 61 55.0185 143 61 55.0185 143.981 61 56 
144 60.9815 56 129 62 55.0185 128.019 62 56 
130 62 55.0185 131 62 55.0185 132 62 55.0185 
133 62 55.0185 134 62 55.0185 135 62 55.0185 
136 62 55.0185 137 62 55.0185 139 62 55.0185 
140 62 55.0185 140.981 62 56 141 61.9815 56 
142 61.9815 56 143 61.9815 56 129 63 55.0185 
128.019 63 56 130 63 55.0185 131 63 55.0185 
132 63 55.0185 133 63 55.0185 134 63 55.0185 
135 63 55.0185 138 63 55.0185 139 63 55.0185 
139.981 63 56 140 62.9815 56 129 63.9815 56 
130 63.9815 56 130.019 64 56 131 64 55.0185 
132 64 55.0185 133 64 55.0185 134 64 55.0185 
135 64 55.0185 137 64 55.0185 138 64 55.0185 
138.981 64 56 139 63.9815 56 131 65 55.0185 
130.019 65 56 132 65 55.0185 133 65 55.0185 
134 65 55.0185 135 65 55.0185 136 65 55.0185 
137 65 55.0185 137.981 65 56 138 64.9815 56 
131 65.9815 56 132 65.9815 56 132.019 66 56 
133 66 55.0185 134 66 55.0185 134.981 66 56 
135 65.9815 56 136 65.9815 56 137 65.9815 56 
133 67 55.0185 132.019 67 56 133.981 67 56 
134 66.9815 56 133 67.9815 56 122 31 56.0185 
122 30.0185 57 121.019 31 57 122.981 31 57 
[...]
POINT_DATA 3988
SCALARS scalars float
LOOKUP_TABLE default
1 1 1 1 1 1 1 1 1 
1 1 1 1 1 1 1 1 1 
1 1 1 1 1 1 1 1 1 
1 1 1 1 1 1 1 1 1 
1 1 1 1 1 1 1 1 1 
1 1 1 1 1 1 1 1 1 
1 1 1 1 1 1 1 1 1 
1 1 1 1 1 1 1 1 1 
1 1 1 1 1 1 1 1 1 
1 1 1 1 1 1 1 1 1 
1 1 1 1 1 1 1 1 1 
1 1 1 1 1 1 1 1 1 
1 1 1 1 1 1 1 1 1 
1 1 1 1 1 1 1 1 1 
1 1 1 1 1 1 1 1 1 
1 1 1 1 1 1 1 1 1 
1 1 1 1 1 1 1 1 1 
1 1 1 1 1 1 1 1 1 
1 1 1 1 1 1 1 1 1 
1 1 1 1 1 1 1 1 1 
1 1 1 1 1 1 1 1 1 
1 1 1 1 1 1 1 1 1 
1 1 1 1 1 1 1 1 1 
1 1 1 1 1 1 1 1 1 
1 1 1 1 1 1 1 1 1 
1 1 1 1 1 1 1 1 1 
1 1 1 1 1 1 1 1 1 
1 1 1 1 1 1 1 1 1 
1 1 1 1 1 1 1 1 1 
1 1 1 1 1 1 1 1 1 
1 1 1 1 1 1 1 1 1 
1 1 1 1 1 1 1 1 1 
1 1 1 1 1 1 1 1 1 
1 1 1 1 1 1 1 1 1 
1 1 1 1 1 1 1 1 1 
1 1 1 1 1 1 1 1 1 
1 1 1 1 1 1 1 1 1 
1 1 1 1 1 1 1 1 1 
1 1 1 1 1 1 1 1 1 
1 1 1 1 1 1 1 1 1 
1 1 1 1 1 1 1 1 1 
1 1 1 1 1 1 1 1 1 
1 1 1 1 1 1 1 1 1 
1 1 1 1 1 1 1 1 1 
1 1 1 1 1 1 1 1 1 
1 1 1 1 1 1 1 1 1 
1 1 1 1 1 1 1 1 1 
1 1 1 1 1 1 1 1 1 
1 1 1 1 1 1 1 1 1 
1 1 1 1 1 1 1 1 1 
1 1 1 1 1 1 1 1 1 
1 1 1 1 1 1 1 1 1 
1 1 1 1 1 1 1 1 1 
1 1 1 1 1 1 1 1 1 
1 1 1 1 1 1 1 1 1 
1 1 1 1 1 1 1 1 1 
1 1 1 1 1 1 1 1 1 
1 1 1 1 1 1 1 1 1 
1 1 1 1 1 1 1 1 1 
1 1 1 1 1 1 1 1 1 
1 1 1 1 1 1 1 1 1 
1 1 1 1 1 1 1 1 1 
1 1 1 1 1 1 1 1 1 
1 1 1 1 1 1 1 1 1 
1 1 1 1 1 1 1 1 1 
1 1 1 1 1 1 1 1 1 
1 1 1 1 1 1 1 1 1 
1 1 1 1 1 1 1 1 1 
1 1 1 1 1 1 1 1 1 
1 1 1 1 1 1 1 1 1 
1 1 1 1 1 1 1 1 1 
1 1 1 1 1 1 1 1 1 
1 1 1 1 1 1 1 1 1 
1 1 1 1 1 1 1 1 1 
1 1 1 1 1 1 1 1 1 
1 1 1 1 1 1 1 1 1 
1 1 1 1 1 1 1 1 1 
1 1 1 1 1 1 1 1 1 
1 1 1 1 1 1 1 1 1 
1 1 1 1 1 1 1 1 1 
1 1 1 1 1 1 1 1 1 
1 1 1 1 1 1 1 1 1 
1 1 1 1 1 1 1 1 1 
1 1 1 1 1 1 1 1 1 
1 1 1 1 1 1 1 1 1 
1 1 1 1 1 1 1 1 1 
1 1 1 1 1 1 1 1 1 
1 1 1 1 1 1 1 1 1 
1 1 1 1 1 1 1 1 1 
1 1 1 1 1 1 1 1 1 
1 1 1 1 1 1 1 1 1 
1 1 1 1 1 1 1 1 1 
1 1 1 1 1 1 1 1 1 
1 1 1 1 1 1 1 1 1 
1 1 1 1 1 1 1 1 1 
1 1 1 1 1 1 1 1 1 
1 1 1 1 1 1 1 1 1 
1 1 1 1 1 1 1 1 1 
1 1 1 1 1 1 1 1 1 
1 1 1 1 1 1 1 1 1 
1 1 1 1 1 1 1 1 1 
1 1 1 1 1 1 1 1 1 
1 1 1 1 1 1 1 1 1 
1 1 1 1 1 1 1 1 1 
1 1 1 1 1 1 1 1 1 
1 1 1 1 1 1 1 1 1 
1 1 1 1 1 1 1 1 1 
1 1 1 1 1 1 1 1 1 
1 1 1 1 1 1 1 1 1 
1 1 1 1 1 1 1 1 1 
1 1 1 1 1 1 1 1 1 
1 1 1 1 1 1 1 1 1 
1 1 1 1 1 1 1 1 1 
1 1 1 1 1 1 1 1 1 
1 1 1 1 1 1 1 1 1 
1 1 1 1 1 1 1 1 1 
1 1 1 1 1 1 1 1 1 
1 1 1 1 1 1 1 1 1 
1 1 1 1 1 1 1 1 1 
1 1 1 1 1 1 1 1 1 
1 1 1 1 1 1 1 1 1 
1 1 1 1 1 1 1 1 1 
1 1 1 1 1 1 1 1 1 
1 1 1 1 1 1 1 1 1 
1 1 1 1 1 1 1 1 1 
1 1 1 1 1 1 1 1 1 
1 1 1 1 1 1 1 1 1 
1 1 1 1 1 1 1 1 1 
1 1 1 1 1 1 1 1 1 
1 1 1 1 1 1 1 1 1 
1 1 1 1 1 1 1 1 1 
1 1 1 1 1 1 1 1 1 
1 1 1 1 1 1 1 1 1 
1 1 1 1 1 1 1 1 1 
1 1 1 1 1 1 1 1 1 
1 1 1 1 1 1 1 1 1 
1 1 1 1 1 1 1 1 1 
1 1 1 1 1 1 1 1 1 
1 1 1 1 1 1 1 1 1 
1 1 1 1 1 1 1 1 1 
1 1 1 1 1 1 1 1 1 
1 1 1 1 1 1 1 1 1 
1 1 1 1 1 1 1 1 1 
1 1 1 1 1 1 1 1 1 
1 1 1 1 1 1 1 1 1 
1 1 1 1 1 1 1 1 1 
1 1 1 1 1 1 1 1 1 
1 1 1 1 1 1 1 1 1 
1 1 1 1 1 1 1 1 1 
1 1 1 1 1 1 1 1 1 
1 1 1 1 1 1 1 1 1 
1 1 1 1 1 1 1 1 1 
1 1 1 1 1 1 1 1 1 
1 1 1 1 1 1 1 1 1 
1 1 1 1 1 1 1 1 1 
1 1 1 1 1 1 1 1 1 
1 1 1 1 1 1 1 1 1 
1 1 1 1 1 1 1 1 1 
1 1 1 1 1 1 1 1 1 
1 1 1 1 1 1 1 1 1 
1 1 1 1 1 1 1 1 1 
1 1 1 1 1 1 1 1 1 
1 1 1 1 1 1 1 1 1 
1 1 1 1 1 1 1 1 1 
1 1 1 1 1 1 1 1 1 
1 1 1 1 1 1 1 1 1 
1 1 1 1 1 1 1 1 1 
1 1 1 1 1 1 1 1 1 
1 1 1 1 1 1 1 1 1 
1 1 1 1 1 1 1 1 1 
1 1 1 1 1 1 1 1 1 
1 1 1 1 1 1 1 1 1 
1 1 1 1 1 1 1 1 1 
1 1 1 1 1 1 1 1 1 
1 1 1 1 1 1 1 1 1 
1 1 1 1 1 1 1 1 1 
1 1 1 1 1 1 1 1 1 
1 1 1 1 1 1 1 1 1 
1 1 1 1 1 1 1 1 1 
1 1 1 1 1 1 1 1 1 
1 1 1 1 1 1 1 1 1 
1 1 1 1 1 1 1 1 1 
1 1 1 1 1 1 1 1 1 
1 1 1 1 1 1 1 1 1 
1 1 1 1 1 1 1 1 1 
1 1 1 1 1 1 1 1 1 
1 1 1 1 1 1 1 1 1 
1 1 1 1 1 1 1 1 1 
1 1 1 1 1 1 1 1 1 
1 1 1 1 1 1 1 1 1 
1 1 1 1 1 1 1 1 1 
1 1 1 1 1 1 1 1 1 
1 1 1 1 1 1 1 1 1 
1 1 1 1 1 1 1 1 1 
1 1 1 1 1 1 1 1 1 
1 1 1 1 1 1 1 1 1 
1 1 1 1 1 1 1 1 1 
1 1 1 1 1 1 1 1 1 
1 1 1 1 1 1 1 1 1 
1 1 1 1 1 1 1 1 1 
1 1 1 1 1 1 1 1 1 
1 1 1 1 1 1 1 1 1 
1 1 1 1 1 1 1 1 1 
1 1 1 1 1 1 1 1 1 
1 1 1 1 1 1 1 1 1 
1 1 1 1 1 1 1 1 1 
1 1 1 1 1 1 1 1 1 
1 1 1 1 1 1 1 1 1 
1 1 1 1 1 1 1 1 1 
1 1 1 1 1 1 1 1 1 
1 1 1 1 1 1 1 1 1 
1 1 1 1 1 1 1 1 1 
1 1 1 1 1 1 1 1 1 
1 1 1 1 1 1 1 1 1 
1 1 1 1 1 1 1 1 1 
1 1 1 1 1 1 1 1 1 
1 1 1 1 1 1 1 1 1 
1 1 1 1 1 1 1 1 1 
1 1 1 1 1 1 1 1 1 
1 1 1 1 1 1 1 1 1 
1 1 1 1 1 1 1 1 1 
1 1 1 1 1 1 1 1 1 
1 1 1 1 1 1 1 1 1 
1 1 1 1 1 1 1 1 1 
1 1 1 1 1 1 1 1 1 
1 1 1 1 1 1 1 1 1 
1 1 1 1 1 1 1 1 1 
1 1 1 1 1 1 1 1 1 
1 1 1 1 1 1 1 1 1 
1 1 1 1 1 1 1 1 1 
1 1 1 1 1 1 1 1 1 
1 1 1 1 1 1 1 1 1 
1 1 1 1 1 1 1 1 1 
1 1 1 1 1 1 1 1 1 
1 1 1 1 1 1 1 1 1 
1 1 1 1 1 1 1 1 1 
1 1 1 1 1 1 1 1 1 
1 1 1 1 1 1 1 1 1 
1 1 1 1 1 1 1 1 1 
1 1 1 1 1 1 1 1 1 
1 1 1 1 1 1 1 1 1 
1 1 1 1 1 1 1 1 1 
1 1 1 1 1 1 1 1 1 
1 1 1 1 1 1 1 1 1 
1 1 1 1 1 1 1 1 1 
1 1 1 1 1 1 1 1 1 
1 1 1 1 1 1 1 1 1 
1 1 1 1 1 1 1 1 1 
1 1 1 1 1 1 1 1 1 
1 1 1 1 1 1 1 1 1 
1 1 1 1 1 1 1 1 1 
1 1 1 1 1 1 1 1 1 
1 1 1 1 1 1 1 1 1 
1 1 1 1 1 1 1 1 1 
1 1 1 1 1 1 1 1 1 
1 1 1 1 1 1 1 1 1 
1 1 1 1 1 1 1 1 1 
1 1 1 1 1 1 1 1 1 
1 1 1 1 1 1 1 1 1 
1 1 1 1 1 1 1 1 1 
1 1 1 1 1 1 1 1 1 
1 1 1 1 1 1 1 1 1 
1 1 1 1 1 1 1 1 1 
1 1 1 1 1 1 1 1 1 
1 1 1 1 1 1 1 1 1 
1 1 1 1 1 1 1 1 1 
1 1 1 1 1 1 1 1 1 
1 1 1 1 1 1 1 1 1 
1 1 1 1 1 1 1 1 1 
1 1 1 1 1 1 1 1 1 
1 1 1 1 1 1 1 1 1 
1 1 1 1 1 1 1 1 1 
1 1 1 1 1 1 1 1 1 
1 1 1 1 1 1 1 1 1 
1 1 1 1 1 1 1 1 1 
1 1 1 1 1 1 1 1 1 
1 1 1 1 1 1 1 1 1 
1 1 1 1 1 1 1 1 1 
1 1 1 1 1 1 1 1 1 
1 1 1 1 1 1 1 1 1 
1 1 1 1 1 1 1 1 1 
1 1 1 1 1 1 1 1 1 
1 1 1 1 1 1 1 1 1 
1 1 1 1 1 1 1 1 1 
1 1 1 1 1 1 1 1 1 
1 1 1 1 1 1 1 1 1 
1 1 1 1 1 1 1 1 1 
1 1 1 1 1 1 1 1 1 
1 1 1 1 1 1 1 1 1 
1 1 1 1 1 1 1 1 1 
1 1 1 1 1 1 1 1 1 
1 1 1 1 1 1 1 1 1 
1 1 1 1 1 1 1 1 1 
1 1 1 1 1 1 1 1 1 
1 1 1 1 1 1 1 1 1 
1 1 1 1 1 1 1 1 1 
1 1 1 1 1 1 1 1 1 
1 1 1 1 1 1 1 1 1 
1 1 1 1 1 1 1 1 1 
1 1 1 1 1 1 1 1 1 
1 1 1 1 1 1 1 1 1 
1 1 1 1 1 1 1 1 1 
1 1 1 1 1 1 1 1 1 
1 1 1 1 1 1 1 1 1 
1 1 1 1 1 1 1 1 1 
1 1 1 1 1 1 1 1 1 
1 1 1 1 1 1 1 1 1 
1 1 1 1 1 1 1 1 1 
1 1 1 1 1 1 1 1 1 
1 1 1 1 1 1 1 1 1 
1 1 1 1 1 1 1 1 1 
1 1 1 1 1 1 1 1 1 
1 1 1 1 1 1 1 1 1 
1 1 1 1 1 1 1 1 1 
1 1 1 1 1 1 1 1 1 
1 1 1 1 1 1 1 1 1 
1 1 1 1 1 1 1 1 1 
1 1 1 1 1 1 1 1 1 
1 1 1 1 1 1 1 1 1 
1 1 1 1 1 1 1 1 1 
1 1 1 1 1 1 1 1 1 
1 1 1 1 1 1 1 1 1 
1 1 1 1 1 1 1 1 1 
1 1 1 1 1 1 1 1 1 
1 1 1 1 1 1 1 1 1 
1 1 1 1 1 1 1 1 1 
1 1 1 1 1 1 1 1 1 
1 1 1 1 1 1 1 1 1 
1 1 1 1 1 1 1 1 1 
1 1 1 1 1 1 1 1 1 
1 1 1 1 1 1 1 1 1 
1 1 1 1 1 1 1 1 1 
1 1 1 1 1 1 1 1 1 
1 1 1 1 1 1 1 1 1 
1 1 1 1 1 1 1 1 1 
1 1 1 1 1 1 1 1 1 
1 1 1 1 1 1 1 1 1 
1 1 1 1 1 1 1 1 1 
1 1 1 1 1 1 1 1 1 
1 1 1 1 1 1 1 1 1 
1 1 1 1 1 1 1 1 1 
1 1 1 1 1 1 1 1 1 
1 1 1 1 1 1 1 1 1 
1 1 1 1 1 1 1 1 1 
1 1 1 1 1 1 1 1 1 
1 1 1 1 1 1 1 1 1 
1 1 1 1 1 1 1 1 1 
1 1 1 1 1 1 1 1 1 
1 1 1 1 1 1 1 1 1 
1 1 1 1 1 1 1 1 1 
1 1 1 1 1 1 1 1 1 
1 1 1 1 1 1 1 1 1 
1 1 1 1 1 1 1 1 1 
1 1 1 1 1 1 1 1 1 
1 1 1 1 1 1 1 1 1 
1 1 1 1 1 1 1 1 1 
1 1 1 1 1 1 1 1 1 
1 1 1 1 1 1 1 1 1 
1 1 1 1 1 1 1 1 1 
1 1 1 1 1 1 1 1 1 
1 1 1 1 1 1 1 1 1 
1 1 1 1 1 1 1 1 1 
1 1 1 1 1 1 1 1 1 
1 1 1 1 1 1 1 1 1 
1 1 1 1 1 1 1 1 1 
1 1 1 1 1 1 1 1 1 
1 1 1 1 1 1 1 1 1 
1 1 1 1 1 1 1 1 1 
1 1 1 1 1 1 1 1 1 
1 1 1 1 1 1 1 1 1 
1 1 1 1 1 1 1 1 1 
1 1 1 1 1 1 1 1 1 
1 1 1 1 1 1 1 1 1 
1 1 1 1 1 1 1 1 1 
1 1 1 1 1 1 1 1 1 
1 1 1 1 1 1 1 1 1 
1 1 1 1 1 1 1 1 1 
1 1 1 1 1 1 1 1 1 
1 1 1 1 1 1 1 1 1 
1 1 1 1 1 1 1 1 1 
1 1 1 1 1 1 1 1 1 
1 1 1 1 1 1 1 1 1 
1 1 1 1 1 1 1 1 1 
1 1 1 1 1 1 1 1 1 
1 1 1 1 1 1 1 1 1 
1 1 1 1 1 1 1 1 1 
1 1 1 1 1 1 1 1 1 
1 1 1 1 1 1 1 1 1 
1 1 1 1 1 1 1 1 1 
1 1 1 1 1 1 1 1 1 
1 1 1 1 1 1 1 1 1 
1 1 1 1 1 1 1 1 1 
1 1 1 1 1 1 1 1 1 
1 1 1 1 1 1 1 1 1 
1 1 1 1 1 1 1 1 1 
1 1 1 1 1 1 1 1 1 
1 1 1 1 1 1 1 1 1 
1 1 1 1 1 1 1 1 1 
1 1 1 1 1 1 1 1 1 
1 1 1 1 1 1 1 1 1 
1 1 1 1 1 1 1 1 1 
1 1 1 1 1 1 1 1 1 
1 1 1 1 1 1 1 1 1 
1 1 1 1 1 1 1 1 1 
1 1 1 1 1 1 1 1 1 
1 1 1 1 1 1 1 1 1 
1 1 1 1 1 1 1 1 1 
1 1 1 1 1 1 1 1 1 
1 1 1 1 1 1 1 1 1 
1 1 1 1 1 1 1 1 1 
1 1 1 1 1 1 1 1 1 
1 1 1 1 1 1 1 1 1 
1 1 1 1 1 1 1 1 1 
1 1 1 1 1 1 1 1 1 
1 1 1 1 1 1 1 1 1 
1 1 1 1 1 1 1 1 1 
1 1 1 1 1 1 1 1 1 
1 1 1 1 1 1 1 1 1 
1 1 1 1 1 1 1 1 1 
1 1 1 1 1 1 1 1 1 
1 1 1 1 1 1 1 1 1 
1 1 1 1 1 1 1 1 1 
1 1 1 1 1 1 1 1 1 
1 1 1 1 1 1 1 1 1 
1 1 1 1 1 1 1 1 1 
1 1 1 1 1 1 1 1 1 
1 1 1 1 1 1 1 1 1 
1 1 1 1 1 1 1 1 1 
1 1 1 1 1 1 1 1 1 
1 1 1 1 1 1 1 1 1 
1 1 1 1 1 1 1 1 1 
1 1 1 1 1 1 1 1 1 
1 1 1 1 1 1 1 1 1 
1 1 1 1 1 1 1 1 1 
1 1 1 1 1 1 1 1 1 
1 1 1 1 1 1 1 1 1 
1 1 1 1 1 1 1 1 1 
1 1 1 1 1 1 1 1 1 
1 1 1 1 1 1 1 1 1 
1 1 1 1 1 1 1 1 1 
1 1 1 1 1 1 1 1 1 
1 1 1 1 1 1 1 1 1 
1 1 1 1 1 1 1 1 1 
1 
NORMALS normals float
0 -0.0185153 -0.999829 0 -0.707107 -0.707107 -0.700407 -0.0132152 -0.713622 
0.570156 -0.580914 -0.580914 -0.0185122 0.0185122 -0.999657 -0.707046 0.0130934 -0.707046 
0.580914 -0.570156 -0.580914 0.0185153 0 -0.999829 0.707107 0 -0.707107 
-0.0130934 0.707046 -0.707046 0.0132152 0.700407 -0.713622 0 -0.0185153 -0.999829 
0 -0.999829 -0.0185153 -0.700407 -0.0132152 -0.713622 0.570156 -0.580914 -0.580914 
-0.0185122 0.0185122 -0.999657 -0.707046 0.0130934 -0.707046 0.580914 -0.570156 -0.580914 
0.0185153 0 -0.999829 0.580914 -0.570156 -0.580914 -0.0130934 0.707046 -0.707046 
-0.56639 0.577282 -0.588174 0.570156 -0.580914 -0.580914 -0.577282 0.56639 -0.588174 
0 -0.0185153 -0.999829 0.570156 -0.580914 -0.580914 -0.0185122 0.0185122 -0.999657 
-0.707046 0.0130934 -0.707046 0.573719 -0.573719 -0.584544 0 0 -1 
0.0185122 -0.0185122 -0.999657 0.0130934 -0.707046 -0.707046 0.707046 -0.0130934 -0.707046 
-0.0130934 0.707046 -0.707046 -0.573719 0.573719 -0.584544 -0.573719 0.573719 -0.584544 
0 0 -1 0.573719 -0.573719 -0.584544 -0.0185153 0 -0.999829 
-0.0132152 -0.700407 -0.713622 -0.999829 0 -0.0185153 0.0185122 -0.0185122 -0.999657 
0.0130934 -0.707046 -0.707046 0.707046 -0.0130934 -0.707046 -0.0185122 0.0185122 -0.999657 
-0.707046 0.0130934 -0.707046 0.573719 -0.573719 -0.584544 0 0 -1 
0.0185122 -0.0185122 -0.999657 0.0130934 -0.707046 -0.707046 0.707046 -0.0130934 -0.707046 
-0.580914 0.570156 -0.580914 -0.570156 0.580914 -0.580914 0 0.0185153 -0.999829 
0.700407 0.0132152 -0.713622 -0.0130934 0.707046 -0.707046 -0.573719 0.573719 -0.584544 
-0.573719 0.573719 -0.584544 0 0 -1 0.700468 0 -0.713684 
0 0.707107 -0.707107 0 0 -1 -0.700468 0 -0.713684 
0.700468 0 -0.713684 0 0 -1 -0.700468 0 -0.713684 
0.700468 0 -0.713684 -0.0185153 0 -0.999829 -0.0132152 -0.700407 -0.713622 
-0.707107 0 -0.707107 0 0 -1 0 -0.700468 -0.713684 
0.0185122 -0.0185122 -0.999657 0.0130934 -0.707046 -0.707046 0.707046 -0.0130934 -0.707046 
0 0 -1 -0.700468 0 -0.713684 0.700468 0 -0.713684 
-0.0188612 0.999644 -0.0188612 -0.573719 0.573719 -0.584544 -0.570156 0.580914 -0.580914 
0 0.0185153 -0.999829 0.700407 0.0132152 -0.713622 0 0 -1 
-0.573719 -0.573719 -0.584544 0.573719 -0.573719 -0.584544 0 0.707107 -0.707107 
-0.0185153 0 -0.999829 -0.0132152 -0.700407 -0.713622 -0.707107 0 -0.707107 
0 0 -1 0 -0.700468 -0.713684 0 0 -1 
0 -0.700468 -0.713684 0 0 -1 0 -0.700468 -0.713684 
0 0 -1 0 -0.700468 -0.713684 0 0 -1 
-0.573719 -0.573719 -0.584544 0 0.0185153 -0.999829 0.573719 -0.573719 -0.584544 
0 0 -1 0.0185122 -0.0185122 -0.999657 0.0130934 -0.707046 -0.707046 
0.707046 -0.0130934 -0.707046 -0.0188612 0.999644 -0.0188612 0 0.700468 -0.713684 
0 0.700468 -0.713684 0 0.700468 -0.713684 0 0.700468 -0.713684 
0 0.700468 -0.713684 0 0.707107 -0.707107 -0.573719 0.573719 -0.584544 
-0.573719 0.573719 -0.584544 0 0 -1 0.573719 -0.573719 -0.584544 
-0.0185122 0.0185122 -0.999657 -0.707046 0.0130934 -0.707046 0.580914 -0.570156 -0.580914 
0.0185153 0 -0.999829 0.707107 0 -0.707107 -0.0130934 0.707046 -0.707046 
0.0132152 0.700407 -0.713622 0 -0.0185153 -0.999829 0 -0.707107 -0.707107 
-0.700407 -0.0132152 -0.713622 0.999644 -0.0188612 -0.0188612 0 0.0185153 -0.999829 
-0.700407 0.0132152 -0.713622 0.700407 0.0132152 -0.713622 -0.0185122 -0.0185122 -0.999657 
-0.0130934 -0.707046 -0.707046 -0.707046 -0.0130934 -0.707046 0 0 -1 
0 -0.700468 -0.713684 0.0185153 0 -0.999829 0.0132152 -0.700407 -0.713622 
0.707107 0 -0.707107 0 0.707107 -0.707107 0 0.0185153 -0.999829 
-0.577282 -0.56639 -0.588174 0.570156 0.580914 -0.580914 0.573719 0.573719 -0.584544 
0.0132152 0.700407 -0.713622 -0.0185122 -0.0185122 -0.999657 -0.0130934 -0.707046 -0.707046 
-0.707046 -0.0130934 -0.707046 0.0185153 0 -0.999829 -0.56639 -0.577282 -0.588174 
0.570156 0.580914 -0.580914 0.580914 0.570156 -0.580914 0 0.0185153 -0.999829 
-0.700407 0.0132152 -0.713622 0.570156 0.580914 -0.580914 0.580914 0.570156 -0.580914 
0 0.707107 -0.707107 0 -0.707107 -0.707107 0 -0.707107 -0.707107 
-0.570156 -0.580914 -0.580914 0.570156 -0.580914 -0.580914 -0.707046 -0.0130934 -0.707046 
-0.57735 -0.57735 -0.57735 -0.707046 -0.707046 -0.0130934 0.570156 -0.580914 -0.580914 
0.570156 -0.580914 -0.580914 0.0185122 -0.0185122 -0.999657 0.0185122 -0.999657 -0.0185122 
0.999657 -0.0185122 -0.0185122 -0.0185122 -0.0185122 -0.999657 -0.707046 -0.707046 -0.0130934 
-0.707046 -0.707046 -0.0130934 -0.700468 0 -0.713684 0.707107 0 -0.707107 
0.580914 -0.570156 -0.580914 -0.0185122 -0.0185122 -0.999657 -0.707046 -0.707046 -0.0130934 
-0.707046 -0.707046 -0.0130934 0 0 -1 0 0 -1 
0 0.700468 -0.713684 0 0.700468 -0.713684 0 0 -1 
0.570156 -0.580914 -0.580914 0 -0.0185153 -0.999829 0.0185122 -0.0185122 -0.999657 
0.0185122 -0.999657 -0.0185122 0.999657 -0.0185122 -0.0185122 -0.0185122 -0.0185122 -0.999657 
-0.707046 -0.707046 -0.0130934 -0.707046 -0.707046 -0.0130934 0 0 -1 
0 0 -1 0 0 -1 0 0 -1 
0 0 -1 0 0 -1 0 0 -1 
0.0185153 0 -0.999829 0.580914 -0.570156 -0.580914 -0.0185122 -0.0185122 -0.999657 
-0.707046 -0.707046 -0.0130934 -0.707046 -0.707046 -0.0130934 0 0 -1 
0 0 -1 0 0 -1 0 0 -1 
0 0 -1 0 0 -1 0 0 -1 
0 0 -1 0 0 -1 0.570156 -0.580914 -0.580914 
-0.700407 -0.0132152 -0.713622 0 -0.713684 -0.700468 0.570156 -0.580914 -0.580914 
0 -0.999829 -0.0185153 0.0185122 -0.0185122 -0.999657 0.0185122 -0.999657 -0.0185122 
0.999657 -0.0185122 -0.0185122 -0.0185153 0 -0.999829 -0.713622 -0.700407 -0.0132152 
-0.999829 0 -0.0185153 0 0 -1 0 0 -1 
0 0 -1 0 0 -1 0 0 -1 
0 0 -1 0 0 -1 0 0 -1 
0 0 -1 0 0 -1 -0.700468 0 -0.713684 
0.580914 -0.570156 -0.580914 0.580914 -0.570156 -0.580914 -0.713622 0.700407 -0.0132152 
-0.713622 0.700407 -0.0132152 -0.0185153 0 -0.999829 0 0 -1 
0 0 -1 0 0 -1 0 0 -1 
0 0 -1 0 0 -1 0 0 -1 
0 0 -1 0 0 -1 0 0 -1 
0 0.700468 -0.713684 -0.573719 0.573719 -0.584544 0.570156 -0.580914 -0.580914 
0.570156 -0.580914 -0.580914 0 -0.707107 -0.707107 0 -0.707107 -0.707107 
0 -0.0185153 -0.999829 0 -0.999829 -0.0185153 0.0185122 -0.0185122 -0.999657 
0.0185122 -0.999657 -0.0185122 0.999657 -0.0185122 -0.0185122 -0.0185122 0.0185122 -0.999657 
-0.999657 0.0185122 -0.0185122 0 0.0185153 -0.999829 0 0 -1 
0 0 -1 0 0 -1 0 0 -1 
0 0 -1 0 0 -1 0 0 -1 
0 0 -1 0 0 -1 0 0 -1 
-0.700468 0 -0.713684 0.700468 0 -0.713684 0.0185153 0 -0.999829 
0.713622 -0.700407 -0.0132152 -0.0185122 0.999657 -0.0185122 -0.700407 0.713622 -0.0132152 
-0.713622 0.700407 -0.0132152 -0.0132152 -0.700407 -0.713622 0 -0.700468 -0.713684 
0 0 -1 0 0 -1 0 0 -1 
0 0 -1 0 0 -1 0 0 -1 
0 0 -1 0 0 -1 0 0 -1 
0 0.700468 -0.713684 -0.573719 0.573719 -0.584544 0.573719 -0.573719 -0.584544 
0 -0.700468 -0.713684 0.700407 -0.713622 -0.0132152 0 -0.0185153 -0.999829 
0.0185122 -0.0185122 -0.999657 0.0185122 -0.999657 -0.0185122 0.999657 -0.0185122 -0.0185122 
-1 0 0 0.700468 0 -0.713684 0 0 -1 
0 0 -1 0 0 -1 0 0 -1 
0 0 -1 0 0 -1 0 0 -1 
0 0 -1 0 0 -1 -0.700468 0 -0.713684 
0.700468 0 -0.713684 0.0185153 0 -0.999829 0.999829 0 -0.0185153 
-0.580914 0.570156 -0.580914 -0.999829 0 -0.0185153 0.700468 0 -0.713684 
0 0 -1 0 0 -1 0 0 -1 
0 0 -1 0 0 -1 0 0 -1 
0 0 -1 0 0 -1 0 0 -1 
0 0 -1 0 0.700468 -0.713684 -0.573719 0.573719 -0.584544 
0.700468 0 -0.713684 0.0185153 0 -0.999829 0.999829 0 -0.0185153 
-0.0185122 0.0185122 -0.999657 -0.999657 0.0185122 -0.0185122 0 0.707107 -0.707107 
0 0.0185153 -0.999829 0 0.0185153 -0.999829 0 0 -1 
0 0 -1 0 0 -1 0 0 -1 
0 0 -1 0 0 -1 0 0 -1 
0 0 -1 0 0 -1 0 0 -1 
-0.700468 0 -0.713684 0.700468 0 -0.713684 0.0185153 0 -0.999829 
0.580914 -0.570156 -0.580914 -0.0185122 0.999657 -0.0185122 0 0.999829 -0.0185153 
0 0.999829 -0.0185153 -0.700407 0.713622 -0.0132152 -0.713622 0.700407 -0.0132152 
-0.0185153 0 -0.999829 0 -0.700468 -0.713684 0 -0.700468 -0.713684 
0 -0.700468 -0.713684 0 0 -1 0 0 -1 
0 0 -1 0 0 -1 0 0 -1 
0 0 -1 -0.700468 0 -0.713684 0.700468 0 -0.713684 
0 0 -1 0.570156 -0.580914 -0.580914 0 -0.0185153 -0.999829 
0.0185122 -0.0185122 -0.999657 0.0185122 -0.999657 -0.0185122 0.999657 -0.0185122 -0.0185122 
-0.707046 0.0130934 -0.707046 -0.999657 0.0185122 -0.0185122 0.700468 0 -0.713684 
0 0 -1 0 0 -1 0 0 -1 
0 0 -1 0 0 -1 -0.700468 0 -0.713684 
0.700468 0 -0.713684 0 0 -1 0 0 -1 
0.0185153 0 -0.999829 0.999829 0 -0.0185153 -0.0185122 0.999657 -0.0185122 
-0.700468 0.713684 0 -0.580914 0.570156 -0.580914 -0.713622 0.700407 -0.0132152 
0.700468 0 -0.713684 0 -0.700468 -0.713684 0 -0.700468 -0.713684 
0 -0.700468 -0.713684 0 -0.700468 -0.713684 0 -0.700468 -0.713684 
-0.573719 -0.573719 -0.584544 0.573719 -0.573719 -0.584544 0 -0.700468 -0.713684 
0 0 -1 0.0185153 0 -0.999829 0.999829 0 -0.0185153 
-0.0185122 0.0185122 -0.999657 -0.999657 0.0185122 -0.0185122 0 0.707107 -0.707107 
-0.700407 0.0132152 -0.713622 0.700468 0 -0.713684 0.0185153 0 -0.999829 
0.999829 0 -0.0185153 -0.0185122 0.999657 -0.0185122 0 0.999829 -0.0185153 
0 0.999829 -0.0185153 -0.700468 0.713684 0 -0.0132152 0.700407 -0.713622 
-0.713622 0.700407 -0.0132152 0 0.700468 -0.713684 0 0.700468 -0.713684 
0 0.700468 -0.713684 0 0.700468 -0.713684 0 0.700468 -0.713684 
-0.573719 0.573719 -0.584544 0.573719 -0.573719 -0.584544 0.0185153 0 -0.999829 
0.999829 0 -0.0185153 -0.0185153 0 -0.999829 -0.999829 0 -0.0185153 
0 0 -1 0 0 -1 0 0 -1 
0 0 -1 0 0 -1 -0.700468 0 -0.713684 
0.707107 0 -0.707107 0.999829 0 -0.0185153 -0.0185153 0 -0.999829 
-0.999829 0 -0.0185153 0 0 -1 0 0 -1 
0 0 -1 0 0 -1 0 0 -1 
0 0 -1 0 0.700468 -0.713684 0 0.700468 -0.713684 
0.0185153 0 -0.999829 0.999829 0 -0.0185153 -0.0185153 0 -0.999829 
-0.999829 0 -0.0185153 0 0 -1 0 0 -1 
0 0 -1 0 0 -1 0 0 -1 
0 0 -1 0 0 -1 0 0 -1 
0.0185153 0 -0.999829 0.580914 -0.570156 -0.580914 -0.0185153 0 -0.999829 
-0.999829 0 -0.0185153 0 0 -1 0 0 -1 
0 0 -1 0 0 -1 0 0 -1 
0 0 -1 0 0 -1 0 0 -1 
0 0 -1 0.570156 -0.580914 -0.580914 0 -0.0185153 -0.999829 
0.0185122 -0.0185122 -0.999657 0.0185122 -0.999657 -0.0185122 0.999657 -0.0185122 -0.0185122 
-0.0185153 0 -0.999829 -0.999829 0 -0.0185153 0 0 -1 
0 0 -1 0 0 -1 0 0 -1 
0 0 -1 0 0 -1 0 0 -1 
0 0 -1 0 0 -1 0 0 -1 
0.0185153 0 -0.999829 0.999829 0 -0.0185153 -0.0185153 0 -0.999829 
-0.999829 0 -0.0185153 0 0 -1 0 0 -1 
0 0 -1 0 0 -1 0 0 -1 
0 0 -1 0 0 -1 0 0 -1 
0 0 -1 0 0 -1 0.0185153 0 -0.999829 
0.999829 0 -0.0185153 -0.0185153 0 -0.999829 -0.999829 0 -0.0185153 
0 0 -1 0 0 -1 0 0 -1 
0 0 -1 0 0 -1 0 0 -1 
0 0 -1 0 0 -1 0 0 -1 
0 0 -1 0.0185153 0 -0.999829 0.580914 -0.570156 -0.580914 
-0.0185153 0 -0.999829 -0.999829 0 -0.0185153 0 0 -1 
0 0 -1 0 0 -1 0 0 -1 
0 0 -1 0 0 -1 0 0 -1 
0 0 -1 0 0 -1 0 0 -1 
0 0 -1 0.570156 -0.580914 -0.580914 0 -0.0185153 -0.999829 
0.0130934 -0.707046 -0.707046 0.0130934 -0.707046 -0.707046 0.999657 -0.0185122 -0.0185122 
-0.0185153 0 -0.999829 -0.999829 0 -0.0185153 0 0 -1 
0 0 -1 0 0 -1 0 0 -1 
0 0 -1 0 0 -1 0 0 -1 
0 0 -1 0 0 -1 0 0 -1 
0 0 -1 -0.700468 0 -0.713684 0.584544 -0.573719 -0.573719 
-0.0185153 0 -0.999829 -0.999829 0 -0.0185153 0 0 -1 
0 0 -1 0 0 -1 0 0 -1 
0 0 -1 0 0 -1 0 0 -1 
0 0 -1 0 -0.700468 -0.713684 0 -0.700468 -0.713684 
0 -0.700468 -0.713684 -0.700468 0 -0.713684 0.570156 -0.580914 -0.580914 
0.700407 -0.0132152 -0.713622 0.0185153 0 -0.999829 0.0132152 -0.700407 -0.713622 
0.999829 0 -0.0185153 -0.0185153 0 -0.999829 -0.999829 0 -0.0185153 
0 0 -1 0 0 -1 0 0 -1 
0 0 -1 0 0 -1 0 0 -1 
0 0 -1 -0.700468 0 -0.713684 0.700407 0.0132152 -0.713622 
0 0.707107 -0.707107 0.0185122 0.0185122 -0.999657 0.707046 0.707046 -0.0130934 
0.713622 0.700407 -0.0132152 -0.0185153 0 -0.999829 -0.999829 0 -0.0185153 
0 0 -1 0 0 -1 0 0 -1 
0 0 -1 0 0 -1 0 0 -1 