# vtk DataFile Version 3.0
vtk output
ASCII
DATASET POLYDATA
POINTS 5174 float
68 116 34.0256 68 115.026 35 67.0256 116 35 
68.9744 116 35 68 117 34.0256 67.0256 117 35 
68.9744 117 35 68 118 34.0256 67.0256 118 35 
68.9744 118 35 68 119 34.0256 67.0256 119 35 
68.9744 119 35 68 120 34.0256 67.0256 120 35 
68.9744 120 35 68 121 34.0256 67.0256 121 35 
68.9744 121 35 68 122 34.0256 67.0256 122 35 
68.9744 122 35 68 123 34.0256 67.0256 123 35 
68.9744 123 35 68 123.974 35 68 115 35.0256 
68 114.026 36 67.0256 115 36 68.9744 115 36 
67 116 35.0256 67 115.026 36 66.0256 116 36 
69 116 35.0256 69 115.026 36 70 116 35.0256 
70 115.026 36 70.9744 116 36 67 117 35.0256 
66.0256 117 36 69 117 35.0256 70 117 35.0256 
70.9744 117 36 67 118 35.0256 66.0256 118 36 
69 118 35.0256 70 118 35.0256 71 117.026 36 
71 118 35.0256 72 118 35.0256 72 117.026 36 
72.9744 118 36 66 119 35.0256 66 118.026 36 
65.0256 119 36 67 119 35.0256 69 119 35.0256 
70 119 35.0256 71 119 35.0256 72 119 35.0256 
72.9744 119 36 65 120 35.0256 65 119.026 36 
64.0256 120 36 66 120 35.0256 67 120 35.0256 
69 120 35.0256 70 120 35.0256 71 120 35.0256 
72 120 35.0256 72.9744 120 36 65 121 35.0256 
64.0256 121 36 66 121 35.0256 67 121 35.0256 
69 121 35.0256 70 121 35.0256 71 121 35.0256 
72 121 35.0256 72.9744 121 36 65 122 35.0256 
64.0256 122 36 66 122 35.0256 67 122 35.0256 
69 122 35.0256 70 122 35.0256 71 122 35.0256 
72 122 35.0256 73 121.026 36 73 122 35.0256 
74 122 35.0256 74 121.026 36 74.9744 122 36 
64 123 35.0256 64 122.026 36 63.0256 123 36 
65 123 35.0256 66 123 35.0256 67 123 35.0256 
69 123 35.0256 70 123 35.0256 71 123 35.0256 
72 123 35.0256 73 123 35.0256 74 123 35.0256 
74.9744 123 36 63 124 35.0256 63 123.026 36 
62.0256 124 36 64 124 35.0256 65 124 35.0256 
66 124 35.0256 66.9744 124 36 67 123.974 36 
68 123.974 36 69 124 35.0256 68.0256 124 36 
70 124 35.0256 71 124 35.0256 72 124 35.0256 
73 124 35.0256 74 124 35.0256 74.9744 124 36 
63 125 35.0256 62.0256 125 36 64 125 35.0256 
65 125 35.0256 66 125 35.0256 66.9744 125 36 
69 125 35.0256 68.0256 125 36 70 125 35.0256 
71 125 35.0256 72 125 35.0256 73 125 35.0256 
74 125 35.0256 74.9744 125 36 63 126 35.0256 
62.0256 126 36 64 126 35.0256 65 126 35.0256 
66 126 35.0256 66.9744 126 36 69 125.974 36 
70 125.974 36 70.0256 126 36 71 126 35.0256 
72 126 35.0256 73 126 35.0256 74 126 35.0256 
74.9744 126 36 62 127 35.0256 62 126.026 36 
61.0256 127 36 63 127 35.0256 64 127 35.0256 
65 127 35.0256 65.9744 127 36 66 126.974 36 
71 127 35.0256 70.0256 127 36 72 127 35.0256 
73 127 35.0256 74 127 35.0256 74.9744 127 36 
62 127.974 36 62.0256 128 36 63 128 35.0256 
64 128 35.0256 64.9744 128 36 65 127.974 36 
71 128 35.0256 70.0256 128 36 72 128 35.0256 
73 128 35.0256 74 128 35.0256 74.9744 128 36 
63 129 35.0256 62.0256 129 36 63.9744 129 36 
64 128.974 36 71 129 35.0256 70.0256 129 36 
72 129 35.0256 73 129 35.0256 73.9744 129 36 
74 128.974 36 63 129.974 36 71 129.974 36 
72 129.974 36 73 129.974 36 65 111 36.0256 
65 110.026 37 64.0256 111 37 65.9744 111 37 
65 111.974 37 66 111.026 37 65.0256 112 37 
66 112 36.0256 66.9744 112 37 66 113 36.0256 
65.0256 113 37 67 112.026 37 67 113 36.0256 
67.9744 113 37 66 113.974 37 67 113.974 37 
68 113.026 37 67.0256 114 37 68 114 36.0256 
68.9744 114 37 66 115 36.0256 66 114.026 37 
65.0256 115 37 67 115 36.0256 67 114.026 37 
69 115 36.0256 69 114.026 37 69.9744 115 37 
66 116 36.0256 65.0256 116 37 70 115.026 37 
70.9744 116 37 66 117 36.0256 65.0256 117 37 
70.9744 117 37 66 118 36.0256 65.0256 118 37 
71 117.026 37 72 117.026 37 72.9744 118 37 
65 119 36.0256 65 118.026 37 64.0256 119 37 
72.9744 119 37 64 120 36.0256 64 119.026 37 
63.0256 120 37 72.9744 120 37 64 121 36.0256 
63.0256 121 37 72.9744 121 37 64 122 36.0256 
63.0256 122 37 73 121.026 37 74 121.026 37 
74.9744 122 37 63 123 36.0256 63 122.026 37 
62.0256 123 37 74.9744 123 37 62 124 36.0256 
62 123.026 37 61.0256 124 37 66.9744 124 37 
67 123.974 37 68 124 36.0256 67.0256 124 37 
74.9744 124 37 62 125 36.0256 61.0256 125 37 
66.9744 125 37 68 125 36.0256 67.0256 125 37 
74.9744 125 37 62 126 36.0256 61.0256 126 37 
66.9744 126 37 68 125.974 37 69 125.974 37 
70 126 36.0256 69.0256 126 37 74.9744 126 37 
61.0256 127 37 66 127 36.0256 66.9744 127 37 
70 127 36.0256 69.0256 127 37 74.9744 127 37 
62 127.974 37 62.0256 128 37 64.9744 128 37 
65 127.974 37 66 127.974 37 70 128 36.0256 
69.0256 128 37 74.9744 128 37 62.0256 129 37 
64 129 36.0256 64.9744 129 37 70 129 36.0256 
69.0256 129 37 73.9744 129 37 74 128.974 37 
63 129.974 37 64 129.974 37 70 129.974 37 
71 129.974 37 72 129.974 37 73 129.974 37 
65 110 37.0256 65 109.026 38 64.0256 110 38 
66 110 37.0256 66 109.026 38 66.9744 110 38 
64.0256 111 38 66 111 37.0256 66.9744 111 38 
65 112 37.0256 64.0256 112 38 67 112 37.0256 
67 111.026 38 68 112 37.0256 68 111.026 38 
68.9744 112 38 65 113 37.0256 64.0256 113 38 
68 113 37.0256 68.9744 113 38 65 114 37.0256 
64.0256 114 38 66 114 37.0256 67 114 37.0256 
69 114 37.0256 69 113.026 38 70 114 37.0256 
70 113.026 38 70.9744 114 38 65 115 37.0256 
64.0256 115 38 70 115 37.0256 70.9744 115 38 
65 116 37.0256 64.0256 116 38 70.9744 116 38 
65 117 37.0256 64.0256 117 38 70.9744 117 38 
65 118 37.0256 64.0256 118 38 71 117.026 38 
72 117.026 38 72.9744 118 38 64 119 37.0256 
64 118.026 38 63.0256 119 38 72.9744 119 38 
63 120 37.0256 63 119.026 38 62.0256 120 38 
72.9744 120 38 63 121 37.0256 62.0256 121 38 
72.9744 121 38 63 122 37.0256 62.0256 122 38 
73 121.026 38 74 121.026 38 74.9744 122 38 
62 123 37.0256 62 122.026 38 61.0256 123 38 
74.9744 123 38 61 124 37.0256 61 123.026 38 
60.0256 124 38 67 124 37.0256 74.9744 124 38 
61 125 37.0256 60.0256 125 38 67 125 37.0256 
74.9744 125 38 61 126 37.0256 60.0256 126 38 
67 126 37.0256 68 126 37.0256 69 126 37.0256 
74.9744 126 38 61 127 37.0256 60.0256 127 38 
67 127 37.0256 68 127 37.0256 69 127 37.0256 
74.9744 127 38 61 127.974 38 62 127.974 38 
62.0256 128 38 65 128 37.0256 66 128 37.0256 
67 128 37.0256 68 128 37.0256 69 128 37.0256 
74.9744 128 38 62.0256 129 38 65 129 37.0256 
66 129 37.0256 67 129 37.0256 68 129 37.0256 
69 129 37.0256 74 129 37.0256 74.9744 129 38 
63 129.974 38 64 129.974 38 65 129.974 38 
66 129.974 38 66.0256 130 38 67 130 37.0256 
68 130 37.0256 69 130 37.0256 70 130 37.0256 
70.9744 130 38 71 129.974 38 72 129.974 38 
73 130 37.0256 72.0256 130 38 74 130 37.0256 
74.9744 130 38 67 131 37.0256 66.0256 131 38 
68 131 37.0256 69 131 37.0256 69.9744 131 38 
70 130.974 38 73 131 37.0256 72.0256 131 38 
73.9744 131 38 74 130.974 38 67 131.974 38 
68 131.974 38 69 131.974 38 73 131.974 38 
65 109 38.0256 65 108.026 39 64.0256 109 39 
65.9744 109 39 64.0256 110 39 66 109.026 39 
66.9744 110 39 64 111 38.0256 64 110.026 39 
63.0256 111 39 67 110.026 39 67 111 38.0256 
68 111 38.0256 68 110.026 39 68.9744 111 39 
64 112 38.0256 63.0256 112 39 68.9744 112 39 
64 113 38.0256 63.0256 113 39 69 112.026 39 
69 113 38.0256 69.9744 113 39 64 114 38.0256 
63.0256 114 39 70 113.026 39 70.9744 114 39 
64 115 38.0256 63.0256 115 39 70.9744 115 39 
64 116 38.0256 63.0256 116 39 70.9744 116 39 
64 117 38.0256 63.0256 117 39 71 116.026 39 
71 117 38.0256 71.9744 117 39 64 118 38.0256 
63.0256 118 39 72 117.026 39 72.9744 118 39 
62 119 38.0256 62 118.026 39 61.0256 119 39 
63 119 38.0256 63 118.026 39 72.9744 119 39 
62 120 38.0256 61.0256 120 39 72.9744 120 39 
62 121 38.0256 61.0256 121 39 73 120.026 39 
73 121 38.0256 73.9744 121 39 62 122 38.0256 
61.0256 122 39 74 121.026 39 74.9744 122 39 
61 123 38.0256 61 122.026 39 60.0256 123 39 
74.9744 123 39 60 124 38.0256 60 123.026 39 
59.0256 124 39 74.9744 124 39 60 125 38.0256 
59.0256 125 39 74.9744 125 39 60 126 38.0256 
59.0256 126 39 74.9744 126 39 60 127 38.0256 
59.0256 127 39 74.9744 127 39 60 127.974 39 
61 127.974 39 62 128 38.0256 61.0256 128 39 
74.9744 128 39 62 129 38.0256 61.0256 129 39 
74.9744 129 39 62 129.974 39 63 129.974 39 
64 129.974 39 65 129.974 39 66 130 38.0256 
65.0256 130 39 70.9744 130 39 71 129.974 39 
72 130 38.0256 71.0256 130 39 74.9744 130 39 
66 131 38.0256 65.0256 131 39 70 131 38.0256 
70.9744 131 39 72 131 38.0256 71.0256 131 39 
73.9744 131 39 74 130.974 39 66 131.974 39 
67 131.974 39 68 131.974 39 69 131.974 39 
70 131.974 39 72 132 38.0256 71.0256 132 39 
73 131.974 39 72.9744 132 39 72 132.974 39 
65 108 39.0256 65 107.026 40 64.0256 108 40 
66 108 39.0256 66 107.026 40 66.9744 108 40 
64.0256 109 40 66 109 39.0256 66.9744 109 40 
64.0256 110 40 67 110 39.0256 67 109.026 40 
68 110 39.0256 68 109.026 40 69 110 39.0256 
69 109.026 40 70 110 39.0256 70 109.026 40 
70.9744 110 40 64 110.026 40 63.0256 111 40 
69 111 39.0256 70 111 39.0256 70.9744 111 40 
63 112 39.0256 63 111.026 40 62.0256 112 40 
69 112 39.0256 70 112 39.0256 70.9744 112 40 
63 113 39.0256 62.0256 113 40 70 113 39.0256 
70.9744 113 40 63 114 39.0256 62.0256 114 40 
71 114 39.0256 71 113.026 40 72 114 39.0256 
72 113.026 40 72.9744 114 40 63 115 39.0256 
62.0256 115 40 71 115 39.0256 72 115 39.0256 
72.9744 115 40 63 116 39.0256 62.0256 116 40 
71 116 39.0256 72 116 39.0256 72.9744 116 40 
62 117 39.0256 62 116.026 40 61.0256 117 40 
63 117 39.0256 72 117 39.0256 72.9744 117 40 
61 118 39.0256 61 117.026 40 60.0256 118 40 
62 118 39.0256 63 118 39.0256 73 118 39.0256 
73 117.026 40 74 118 39.0256 74 117.026 40 
74.9744 118 40 61 119 39.0256 60.0256 119 40 
73 119 39.0256 74 119 39.0256 74.9744 119 40 
61 120 39.0256 60.0256 120 40 73 120 39.0256 
74 120 39.0256 74.9744 120 40 61 121 39.0256 
60.0256 121 40 74 121 39.0256 74.9744 121 40 
61 122 39.0256 60.0256 122 40 74.9744 122 40 
60 123 39.0256 60 122.026 40 59.0256 123 40 
74.9744 123 40 59 124 39.0256 59 123.026 40 
58.0256 124 40 74.9744 124 40 58 125 39.0256 
58 124.026 40 57.0256 125 40 59 125 39.0256 
74.9744 125 40 58 125.974 40 58.0256 126 40 
59 126 39.0256 74.9744 126 40 59 127 39.0256 
58.0256 127 40 74.9744 127 40 59 127.974 40 
60 127.974 40 61 128 39.0256 60.0256 128 40 
[...]
POINT_DATA 5174
SCALARS scalars float
LOOKUP_TABLE default
1 1 1 1 1 1 1 1 1 
1 1 1 1 1 1 1 1 1 
1 1 1 1 1 1 1 1 1 
1 1 1 1 1 1 1 1 1 
1 1 1 1 1 1 1 1 1 
1 1 1 1 1 1 1 1 1 
1 1 1 1 1 1 1 1 1 
1 1 1 1 1 1 1 1 1 
1 1 1 1 1 1 1 1 1 
1 1 1 1 1 1 1 1 1 
1 1 1 1 1 1 1 1 1 
1 1 1 1 1 1 1 1 1 
1 1 1 1 1 1 1 1 1 
1 1 1 1 1 1 1 1 1 
1 1 1 1 1 1 1 1 1 
1 1 1 1 1 1 1 1 1 
1 1 1 1 1 1 1 1 1 
1 1 1 1 1 1 1 1 1 
1 1 1 1 1 1 1 1 1 
1 1 1 1 1 1 1 1 1 
1 1 1 1 1 1 1 1 1 
1 1 1 1 1 1 1 1 1 
1 1 1 1 1 1 1 1 1 
1 1 1 1 1 1 1 1 1 
1 1 1 1 1 1 1 1 1 
1 1 1 1 1 1 1 1 1 
1 1 1 1 1 1 1 1 1 
1 1 1 1 1 1 1 1 1 
1 1 1 1 1 1 1 1 1 
1 1 1 1 1 1 1 1 1 
1 1 1 1 1 1 1 1 1 
1 1 1 1 1 1 1 1 1 
1 1 1 1 1 1 1 1 1 
1 1 1 1 1 1 1 1 1 
1 1 1 1 1 1 1 1 1 
1 1 1 1 1 1 1 1 1 
1 1 1 1 1 1 1 1 1 
1 1 1 1 1 1 1 1 1 
1 1 1 1 1 1 1 1 1 
1 1 1 1 1 1 1 1 1 
1 1 1 1 1 1 1 1 1 
1 1 1 1 1 1 1 1 1 
1 1 1 1 1 1 1 1 1 
1 1 1 1 1 1 1 1 1 
1 1 1 1 1 1 1 1 1 
1 1 1 1 1 1 1 1 1 
1 1 1 1 1 1 1 1 1 
1 1 1 1 1 1 1 1 1 
1 1 1 1 1 1 1 1 1 
1 1 1 1 1 1 1 1 1 
1 1 1 1 1 1 1 1 1 
1 1 1 1 1 1 1 1 1 
1 1 1 1 1 1 1 1 1 
1 1 1 1 1 1 1 1 1 
1 1 1 1 1 1 1 1 1 
1 1 1 1 1 1 1 1 1 
1 1 1 1 1 1 1 1 1 
1 1 1 1 1 1 1 1 1 
1 1 1 1 1 1 1 1 1 
1 1 1 1 1 1 1 1 1 
1 1 1 1 1 1 1 1 1 
1 1 1 1 1 1 1 1 1 
1 1 1 1 1 1 1 1 1 
1 1 1 1 1 1 1 1 1 
1 1 1 1 1 1 1 1 1 
1 1 1 1 1 1 1 1 1 
1 1 1 1 1 1 1 1 1 
1 1 1 1 1 1 1 1 1 
1 1 1 1 1 1 1 1 1 
1 1 1 1 1 1 1 1 1 
1 1 1 1 1 1 1 1 1 
1 1 1 1 1 1 1 1 1 
1 1 1 1 1 1 1 1 1 
1 1 1 1 1 1 1 1 1 
1 1 1 1 1 1 1 1 1 
1 1 1 1 1 1 1 1 1 
1 1 1 1 1 1 1 1 1 
1 1 1 1 1 1 1 1 1 
1 1 1 1 1 1 1 1 1 
1 1 1 1 1 1 1 1 1 
1 1 1 1 1 1 1 1 1 
1 1 1 1 1 1 1 1 1 
1 1 1 1 1 1 1 1 1 
1 1 1 1 1 1 1 1 1 
1 1 1 1 1 1 1 1 1 
1 1 1 1 1 1 1 1 1 
1 1 1 1 1 1 1 1 1 
1 1 1 1 1 1 1 1 1 
1 1 1 1 1 1 1 1 1 
1 1 1 1 1 1 1 1 1 
1 1 1 1 1 1 1 1 1 
1 1 1 1 1 1 1 1 1 
1 1 1 1 1 1 1 1 1 
1 1 1 1 1 1 1 1 1 
1 1 1 1 1 1 1 1 1 
1 1 1 1 1 1 1 1 1 
1 1 1 1 1 1 1 1 1 
1 1 1 1 1 1 1 1 1 
1 1 1 1 1 1 1 1 1 
1 1 1 1 1 1 1 1 1 
1 1 1 1 1 1 1 1 1 
1 1 1 1 1 1 1 1 1 
1 1 1 1 1 1 1 1 1 
1 1 1 1 1 1 1 1 1 
1 1 1 1 1 1 1 1 1 
1 1 1 1 1 1 1 1 1 
1 1 1 1 1 1 1 1 1 
1 1 1 1 1 1 1 1 1 
1 1 1 1 1 1 1 1 1 
1 1 1 1 1 1 1 1 1 
1 1 1 1 1 1 1 1 1 
1 1 1 1 1 1 1 1 1 
1 1 1 1 1 1 1 1 1 
1 1 1 1 1 1 1 1 1 
1 1 1 1 1 1 1 1 1 
1 1 1 1 1 1 1 1 1 
1 1 1 1 1 1 1 1 1 
1 1 1 1 1 1 1 1 1 
1 1 1 1 1 1 1 1 1 
1 1 1 1 1 1 1 1 1 
1 1 1 1 1 1 1 1 1 
1 1 1 1 1 1 1 1 1 
1 1 1 1 1 1 1 1 1 
1 1 1 1 1 1 1 1 1 
1 1 1 1 1 1 1 1 1 
1 1 1 1 1 1 1 1 1 
1 1 1 1 1 1 1 1 1 
1 1 1 1 1 1 1 1 1 
1 1 1 1 1 1 1 1 1 
1 1 1 1 1 1 1 1 1 
1 1 1 1 1 1 1 1 1 
1 1 1 1 1 1 1 1 1 
1 1 1 1 1 1 1 1 1 
1 1 1 1 1 1 1 1 1 
1 1 1 1 1 1 1 1 1 
1 1 1 1 1 1 1 1 1 
1 1 1 1 1 1 1 1 1 
1 1 1 1 1 1 1 1 1 
1 1 1 1 1 1 1 1 1 
1 1 1 1 1 1 1 1 1 
1 1 1 1 1 1 1 1 1 
1 1 1 1 1 1 1 1 1 
1 1 1 1 1 1 1 1 1 
1 1 1 1 1 1 1 1 1 
1 1 1 1 1 1 1 1 1 
1 1 1 1 1 1 1 1 1 
1 1 1 1 1 1 1 1 1 
1 1 1 1 1 1 1 1 1 
1 1 1 1 1 1 1 1 1 
1 1 1 1 1 1 1 1 1 
1 1 1 1 1 1 1 1 1 
1 1 1 1 1 1 1 1 1 
1 1 1 1 1 1 1 1 1 
1 1 1 1 1 1 1 1 1 
1 1 1 1 1 1 1 1 1 
1 1 1 1 1 1 1 1 1 
1 1 1 1 1 1 1 1 1 
1 1 1 1 1 1 1 1 1 
1 1 1 1 1 1 1 1 1 
1 1 1 1 1 1 1 1 1 
1 1 1 1 1 1 1 1 1 
1 1 1 1 1 1 1 1 1 
1 1 1 1 1 1 1 1 1 
1 1 1 1 1 1 1 1 1 
1 1 1 1 1 1 1 1 1 
1 1 1 1 1 1 1 1 1 
1 1 1 1 1 1 1 1 1 
1 1 1 1 1 1 1 1 1 
1 1 1 1 1 1 1 1 1 
1 1 1 1 1 1 1 1 1 
1 1 1 1 1 1 1 1 1 
1 1 1 1 1 1 1 1 1 
1 1 1 1 1 1 1 1 1 
1 1 1 1 1 1 1 1 1 
1 1 1 1 1 1 1 1 1 
1 1 1 1 1 1 1 1 1 
1 1 1 1 1 1 1 1 1 
1 1 1 1 1 1 1 1 1 
1 1 1 1 1 1 1 1 1 
1 1 1 1 1 1 1 1 1 
1 1 1 1 1 1 1 1 1 
1 1 1 1 1 1 1 1 1 
1 1 1 1 1 1 1 1 1 
1 1 1 1 1 1 1 1 1 
1 1 1 1 1 1 1 1 1 
1 1 1 1 1 1 1 1 1 
1 1 1 1 1 1 1 1 1 
1 1 1 1 1 1 1 1 1 
1 1 1 1 1 1 1 1 1 
1 1 1 1 1 1 1 1 1 
1 1 1 1 1 1 1 1 1 
1 1 1 1 1 1 1 1 1 
1 1 1 1 1 1 1 1 1 
1 1 1 1 1 1 1 1 1 
1 1 1 1 1 1 1 1 1 
1 1 1 1 1 1 1 1 1 
1 1 1 1 1 1 1 1 1 
1 1 1 1 1 1 1 1 1 
1 1 1 1 1 1 1 1 1 
1 1 1 1 1 1 1 1 1 
1 1 1 1 1 1 1 1 1 
1 1 1 1 1 1 1 1 1 
1 1 1 1 1 1 1 1 1 
1 1 1 1 1 1 1 1 1 
1 1 1 1 1 1 1 1 1 
1 1 1 1 1 1 1 1 1 
1 1 1 1 1 1 1 1 1 
1 1 1 1 1 1 1 1 1 
1 1 1 1 1 1 1 1 1 
1 1 1 1 1 1 1 1 1 
1 1 1 1 1 1 1 1 1 
1 1 1 1 1 1 1 1 1 
1 1 1 1 1 1 1 1 1 
1 1 1 1 1 1 1 1 1 
1 1 1 1 1 1 1 1 1 
1 1 1 1 1 1 1 1 1 
1 1 1 1 1 1 1 1 1 
1 1 1 1 1 1 1 1 1 
1 1 1 1 1 1 1 1 1 
1 1 1 1 1 1 1 1 1 
1 1 1 1 1 1 1 1 1 
1 1 1 1 1 1 1 1 1 
1 1 1 1 1 1 1 1 1 
1 1 1 1 1 1 1 1 1 
1 1 1 1 1 1 1 1 1 
1 1 1 1 1 1 1 1 1 
1 1 1 1 1 1 1 1 1 
1 1 1 1 1 1 1 1 1 
1 1 1 1 1 1 1 1 1 
1 1 1 1 1 1 1 1 1 
1 1 1 1 1 1 1 1 1 
1 1 1 1 1 1 1 1 1 
1 1 1 1 1 1 1 1 1 
1 1 1 1 1 1 1 1 1 
1 1 1 1 1 1 1 1 1 
1 1 1 1 1 1 1 1 1 
1 1 1 1 1 1 1 1 1 
1 1 1 1 1 1 1 1 1 
1 1 1 1 1 1 1 1 1 
1 1 1 1 1 1 1 1 1 
1 1 1 1 1 1 1 1 1 
1 1 1 1 1 1 1 1 1 
1 1 1 1 1 1 1 1 1 
1 1 1 1 1 1 1 1 1 
1 1 1 1 1 1 1 1 1 
1 1 1 1 1 1 1 1 1 
1 1 1 1 1 1 1 1 1 
1 1 1 1 1 1 1 1 1 
1 1 1 1 1 1 1 1 1 
1 1 1 1 1 1 1 1 1 
1 1 1 1 1 1 1 1 1 
1 1 1 1 1 1 1 1 1 
1 1 1 1 1 1 1 1 1 
1 1 1 1 1 1 1 1 1 
1 1 1 1 1 1 1 1 1 
1 1 1 1 1 1 1 1 1 
1 1 1 1 1 1 1 1 1 
1 1 1 1 1 1 1 1 1 
1 1 1 1 1 1 1 1 1 
1 1 1 1 1 1 1 1 1 
1 1 1 1 1 1 1 1 1 
1 1 1 1 1 1 1 1 1 
1 1 1 1 1 1 1 1 1 
1 1 1 1 1 1 1 1 1 
1 1 1 1 1 1 1 1 1 
1 1 1 1 1 1 1 1 1 
1 1 1 1 1 1 1 1 1 
1 1 1 1 1 1 1 1 1 
1 1 1 1 1 1 1 1 1 
1 1 1 1 1 1 1 1 1 
1 1 1 1 1 1 1 1 1 
1 1 1 1 1 1 1 1 1 
1 1 1 1 1 1 1 1 1 
1 1 1 1 1 1 1 1 1 
1 1 1 1 1 1 1 1 1 
1 1 1 1 1 1 1 1 1 
1 1 1 1 1 1 1 1 1 
1 1 1 1 1 1 1 1 1 
1 1 1 1 1 1 1 1 1 
1 1 1 1 1 1 1 1 1 
1 1 1 1 1 1 1 1 1 
1 1 1 1 1 1 1 1 1 
1 1 1 1 1 1 1 1 1 
1 1 1 1 1 1 1 1 1 
1 1 1 1 1 1 1 1 1 
1 1 1 1 1 1 1 1 1 
1 1 1 1 1 1 1 1 1 
1 1 1 1 1 1 1 1 1 
1 1 1 1 1 1 1 1 1 
1 1 1 1 1 1 1 1 1 
1 1 1 1 1 1 1 1 1 
1 1 1 1 1 1 1 1 1 
1 1 1 1 1 1 1 1 1 
1 1 1 1 1 1 1 1 1 
1 1 1 1 1 1 1 1 1 
1 1 1 1 1 1 1 1 1 
1 1 1 1 1 1 1 1 1 
1 1 1 1 1 1 1 1 1 
1 1 1 1 1 1 1 1 1 
1 1 1 1 1 1 1 1 1 
1 1 1 1 1 1 1 1 1 
1 1 1 1 1 1 1 1 1 
1 1 1 1 1 1 1 1 1 
1 1 1 1 1 1 1 1 1 
1 1 1 1 1 1 1 1 1 
1 1 1 1 1 1 1 1 1 
1 1 1 1 1 1 1 1 1 
1 1 1 1 1 1 1 1 1 
1 1 1 1 1 1 1 1 1 
1 1 1 1 1 1 1 1 1 
1 1 1 1 1 1 1 1 1 
1 1 1 1 1 1 1 1 1 
1 1 1 1 1 1 1 1 1 
1 1 1 1 1 1 1 1 1 
1 1 1 1 1 1 1 1 1 
1 1 1 1 1 1 1 1 1 
1 1 1 1 1 1 1 1 1 
1 1 1 1 1 1 1 1 1 
1 1 1 1 1 1 1 1 1 
1 1 1 1 1 1 1 1 1 
1 1 1 1 1 1 1 1 1 
1 1 1 1 1 1 1 1 1 
1 1 1 1 1 1 1 1 1 
1 1 1 1 1 1 1 1 1 
1 1 1 1 1 1 1 1 1 
1 1 1 1 1 1 1 1 1 
1 1 1 1 1 1 1 1 1 
1 1 1 1 1 1 1 1 1 
1 1 1 1 1 1 1 1 1 
1 1 1 1 1 1 1 1 1 
1 1 1 1 1 1 1 1 1 
1 1 1 1 1 1 1 1 1 
1 1 1 1 1 1 1 1 1 
1 1 1 1 1 1 1 1 1 
1 1 1 1 1 1 1 1 1 
1 1 1 1 1 1 1 1 1 
1 1 1 1 1 1 1 1 1 
1 1 1 1 1 1 1 1 1 
1 1 1 1 1 1 1 1 1 
1 1 1 1 1 1 1 1 1 
1 1 1 1 1 1 1 1 1 
1 1 1 1 1 1 1 1 1 
1 1 1 1 1 1 1 1 1 
1 1 1 1 1 1 1 1 1 
1 1 1 1 1 1 1 1 1 
1 1 1 1 1 1 1 1 1 
1 1 1 1 1 1 1 1 1 
1 1 1 1 1 1 1 1 1 
1 1 1 1 1 1 1 1 1 
1 1 1 1 1 1 1 1 1 
1 1 1 1 1 1 1 1 1 
1 1 1 1 1 1 1 1 1 
1 1 1 1 1 1 1 1 1 
1 1 1 1 1 1 1 1 1 
1 1 1 1 1 1 1 1 1 
1 1 1 1 1 1 1 1 1 
1 1 1 1 1 1 1 1 1 
1 1 1 1 1 1 1 1 1 
1 1 1 1 1 1 1 1 1 
1 1 1 1 1 1 1 1 1 
1 1 1 1 1 1 1 1 1 
1 1 1 1 1 1 1 1 1 
1 1 1 1 1 1 1 1 1 
1 1 1 1 1 1 1 1 1 
1 1 1 1 1 1 1 1 1 
1 1 1 1 1 1 1 1 1 
1 1 1 1 1 1 1 1 1 
1 1 1 1 1 1 1 1 1 
1 1 1 1 1 1 1 1 1 
1 1 1 1 1 1 1 1 1 
1 1 1 1 1 1 1 1 1 
1 1 1 1 1 1 1 1 1 
1 1 1 1 1 1 1 1 1 
1 1 1 1 1 1 1 1 1 
1 1 1 1 1 1 1 1 1 
1 1 1 1 1 1 1 1 1 
1 1 1 1 1 1 1 1 1 
1 1 1 1 1 1 1 1 1 
1 1 1 1 1 1 1 1 1 
1 1 1 1 1 1 1 1 1 
1 1 1 1 1 1 1 1 1 
1 1 1 1 1 1 1 1 1 
1 1 1 1 1 1 1 1 1 
1 1 1 1 1 1 1 1 1 
1 1 1 1 1 1 1 1 1 
1 1 1 1 1 1 1 1 1 
1 1 1 1 1 1 1 1 1 
1 1 1 1 1 1 1 1 1 
1 1 1 1 1 1 1 1 1 
1 1 1 1 1 1 1 1 1 
1 1 1 1 1 1 1 1 1 
1 1 1 1 1 1 1 1 1 
1 1 1 1 1 1 1 1 1 
1 1 1 1 1 1 1 1 1 
1 1 1 1 1 1 1 1 1 
1 1 1 1 1 1 1 1 1 
1 1 1 1 1 1 1 1 1 
1 1 1 1 1 1 1 1 1 
1 1 1 1 1 1 1 1 1 
1 1 1 1 1 1 1 1 1 
1 1 1 1 1 1 1 1 1 
1 1 1 1 1 1 1 1 1 
1 1 1 1 1 1 1 1 1 
1 1 1 1 1 1 1 1 1 
1 1 1 1 1 1 1 1 1 
1 1 1 1 1 1 1 1 1 
1 1 1 1 1 1 1 1 1 
1 1 1 1 1 1 1 1 1 
1 1 1 1 1 1 1 1 1 
1 1 1 1 1 1 1 1 1 
1 1 1 1 1 1 1 1 1 
1 1 1 1 1 1 1 1 1 
1 1 1 1 1 1 1 1 1 
1 1 1 1 1 1 1 1 1 
1 1 1 1 1 1 1 1 1 
1 1 1 1 1 1 1 1 1 
1 1 1 1 1 1 1 1 1 
1 1 1 1 1 1 1 1 1 
1 1 1 1 1 1 1 1 1 
1 1 1 1 1 1 1 1 1 
1 1 1 1 1 1 1 1 1 
1 1 1 1 1 1 1 1 1 
1 1 1 1 1 1 1 1 1 
1 1 1 1 1 1 1 1 1 
1 1 1 1 1 1 1 1 1 
1 1 1 1 1 1 1 1 1 
1 1 1 1 1 1 1 1 1 
1 1 1 1 1 1 1 1 1 
1 1 1 1 1 1 1 1 1 
1 1 1 1 1 1 1 1 1 
1 1 1 1 1 1 1 1 1 
1 1 1 1 1 1 1 1 1 
1 1 1 1 1 1 1 1 1 
1 1 1 1 1 1 1 1 1 
1 1 1 1 1 1 1 1 1 
1 1 1 1 1 1 1 1 1 
1 1 1 1 1 1 1 1 1 
1 1 1 1 1 1 1 1 1 
1 1 1 1 1 1 1 1 1 
1 1 1 1 1 1 1 1 1 
1 1 1 1 1 1 1 1 1 
1 1 1 1 1 1 1 1 1 
1 1 1 1 1 1 1 1 1 
1 1 1 1 1 1 1 1 1 
1 1 1 1 1 1 1 1 1 
1 1 1 1 1 1 1 1 1 
1 1 1 1 1 1 1 1 1 
1 1 1 1 1 1 1 1 1 
1 1 1 1 1 1 1 1 1 
1 1 1 1 1 1 1 1 1 
1 1 1 1 1 1 1 1 1 
1 1 1 1 1 1 1 1 1 
1 1 1 1 1 1 1 1 1 
1 1 1 1 1 1 1 1 1 
1 1 1 1 1 1 1 1 1 
1 1 1 1 1 1 1 1 1 
1 1 1 1 1 1 1 1 1 
1 1 1 1 1 1 1 1 1 
1 1 1 1 1 1 1 1 1 
1 1 1 1 1 1 1 1 1 
1 1 1 1 1 1 1 1 1 
1 1 1 1 1 1 1 1 1 
1 1 1 1 1 1 1 1 1 
1 1 1 1 1 1 1 1 1 
1 1 1 1 1 1 1 1 1 
1 1 1 1 1 1 1 1 1 
1 1 1 1 1 1 1 1 1 
1 1 1 1 1 1 1 1 1 
1 1 1 1 1 1 1 1 1 
1 1 1 1 1 1 1 1 1 
1 1 1 1 1 1 1 1 1 
1 1 1 1 1 1 1 1 1 
1 1 1 1 1 1 1 1 1 
1 1 1 1 1 1 1 1 1 
1 1 1 1 1 1 1 1 1 
1 1 1 1 1 1 1 1 1 
1 1 1 1 1 1 1 1 1 
1 1 1 1 1 1 1 1 1 
1 1 1 1 1 1 1 1 1 
1 1 1 1 1 1 1 1 1 
1 1 1 1 1 1 1 1 1 
1 1 1 1 1 1 1 1 1 
1 1 1 1 1 1 1 1 1 
1 1 1 1 1 1 1 1 1 
1 1 1 1 1 1 1 1 1 
1 1 1 1 1 1 1 1 1 
1 1 1 1 1 1 1 1 1 
1 1 1 1 1 1 1 1 1 
1 1 1 1 1 1 1 1 1 
1 1 1 1 1 1 1 1 1 
1 1 1 1 1 1 1 1 1 
1 1 1 1 1 1 1 1 1 
1 1 1 1 1 1 1 1 1 
1 1 1 1 1 1 1 1 1 
1 1 1 1 1 1 1 1 1 
1 1 1 1 1 1 1 1 1 
1 1 1 1 1 1 1 1 1 
1 1 1 1 1 1 1 1 1 
1 1 1 1 1 1 1 1 1 
1 1 1 1 1 1 1 1 1 
1 1 1 1 1 1 1 1 1 
1 1 1 1 1 1 1 1 1 
1 1 1 1 1 1 1 1 1 
1 1 1 1 1 1 1 1 1 
1 1 1 1 1 1 1 1 1 
1 1 1 1 1 1 1 1 1 
1 1 1 1 1 1 1 1 1 
1 1 1 1 1 1 1 1 1 
1 1 1 1 1 1 1 1 1 
1 1 1 1 1 1 1 1 1 
1 1 1 1 1 1 1 1 1 
1 1 1 1 1 1 1 1 1 
1 1 1 1 1 1 1 1 1 
1 1 1 1 1 1 1 1 1 
1 1 1 1 1 1 1 1 1 
1 1 1 1 1 1 1 1 1 
1 1 1 1 1 1 1 1 1 
1 1 1 1 1 1 1 1 1 
1 1 1 1 1 1 1 1 1 
1 1 1 1 1 1 1 1 1 
1 1 1 1 1 1 1 1 1 
1 1 1 1 1 1 1 1 1 
1 1 1 1 1 1 1 1 1 
1 1 1 1 1 1 1 1 1 
1 1 1 1 1 1 1 1 1 
1 1 1 1 1 1 1 1 1 
1 1 1 1 1 1 1 1 1 
1 1 1 1 1 1 1 1 1 
1 1 1 1 1 1 1 1 1 
1 1 1 1 1 1 1 1 1 
1 1 1 1 1 1 1 1 1 
1 1 1 1 1 1 1 1 1 
1 1 1 1 1 1 1 1 1 
1 1 1 1 1 1 1 1 1 
1 1 1 1 1 1 1 1 1 
1 1 1 1 1 1 1 1 1 
1 1 1 1 1 1 1 1 1 
1 1 1 1 1 1 1 1 1 
1 1 1 1 1 1 1 1 1 
1 1 1 1 1 1 1 1 1 
1 1 1 1 1 1 1 1 1 
1 1 1 1 1 1 1 1 1 
1 1 1 1 1 1 1 1 1 
1 1 1 1 1 1 1 1 1 
1 1 1 1 1 1 1 1 1 
1 1 1 1 1 1 1 1 1 
1 1 1 1 1 1 1 1 1 
1 1 1 1 1 1 1 1 1 
1 1 1 1 1 1 1 1 1 
1 1 1 1 1 1 1 1 1 
1 1 1 1 1 1 1 1 1 
1 1 1 1 1 1 1 1 1 
1 1 1 1 1 1 1 1 1 
1 1 1 1 1 1 1 1 1 
1 1 1 1 1 1 1 1 1 
1 1 1 1 1 1 1 1 1 
1 1 1 1 1 1 1 1 1 
1 1 1 1 1 1 1 1 1 
1 1 1 1 1 1 1 1 1 
1 1 1 1 1 1 1 1 1 
1 1 1 1 1 1 1 1 1 
1 1 1 1 1 1 1 1 1 
1 1 1 1 1 1 1 1 1 
1 1 1 1 1 1 1 1 1 
1 1 1 1 1 1 1 1 1 
1 1 1 1 1 1 1 1 1 
1 1 1 1 1 1 1 1 1 
1 1 1 1 1 1 1 1 1 
1 1 1 1 1 1 1 1 1 
1 1 1 1 1 1 1 1 1 
1 1 1 1 1 1 1 1 1 
1 1 1 1 1 1 1 1 1 
1 1 1 1 1 1 1 1 1 
1 1 1 1 1 1 1 1 1 
1 1 1 1 1 1 1 1 
NORMALS normals float
0 -0.0256326 -0.999671 0 -0.707107 -0.707107 -0.697747 -0.0183618 -0.716109 
0.697747 -0.0183618 -0.716109 0 0 -1 -0.697865 0 -0.71623 
0.697865 0 -0.71623 0 0 -1 -0.697865 0 -0.71623 
0.697865 0 -0.71623 0 0 -1 -0.697865 0 -0.71623 
0.697865 0 -0.71623 0 0 -1 -0.697865 0 -0.71623 
0.697865 0 -0.71623 0 0 -1 -0.697865 0 -0.71623 
0.697865 0 -0.71623 0 0 -1 -0.697865 0 -0.71623 
0.697865 0 -0.71623 0 0.0256326 -0.999671 -0.697747 0.0183618 -0.716109 
0.697747 0.0183618 -0.716109 0 0.999671 -0.0256326 0 -0.707107 -0.707107 
0 -0.707107 -0.707107 -0.567354 -0.582284 -0.582284 0.567354 -0.582284 -0.582284 
-0.706991 -0.018128 -0.706991 -0.57735 -0.57735 -0.57735 -0.706991 -0.018128 -0.706991 
0.697747 -0.0183618 -0.716109 0.567354 -0.582284 -0.582284 0.0256242 -0.0256242 -0.999343 
0.0256242 -0.999343 -0.0256242 0.999343 -0.0256242 -0.0256242 -0.707107 0 -0.707107 
-0.707107 0 -0.707107 0.697865 0 -0.71623 0.0256326 0 -0.999671 
0.716109 -0.697747 -0.0183618 -0.707107 0 -0.707107 -0.582284 -0.567354 -0.582284 
0.697865 0 -0.71623 0 0 -1 0.697747 -0.716109 -0.0183618 
0 -0.0256326 -0.999671 0.0256242 -0.0256242 -0.999343 0.0256242 -0.999343 -0.0256242 
0.999343 -0.0256242 -0.0256242 -0.0256242 -0.0256242 -0.999343 -0.57735 -0.57735 -0.57735 
-0.57735 -0.57735 -0.57735 -0.697865 0 -0.71623 0.697865 0 -0.71623 
0 0 -1 0 0 -1 0.0256326 0 -0.999671 
0.999671 0 -0.0256326 -0.0256242 -0.0256242 -0.999343 -0.57735 -0.57735 -0.57735 
-0.706991 -0.018128 -0.706991 0 0 -1 -0.697865 0 -0.71623 
0.697865 0 -0.71623 0 0 -1 0 0 -1 
0.0256326 0 -0.999671 0.999671 0 -0.0256326 -0.0256326 0 -0.999671 
-0.707107 0 -0.707107 0 0 -1 -0.697865 0 -0.71623 
0.697865 0 -0.71623 0 0 -1 0 0 -1 
0.0256326 0 -0.999671 0.716109 -0.697747 -0.0183618 -0.0256326 0 -0.999671 
-0.582284 -0.567354 -0.582284 0 0 -1 -0.697865 0 -0.71623 
0.697865 0 -0.71623 0 0 -1 0 0 -1 
0 0 -1 0.697747 -0.716109 -0.0183618 0 -0.0256326 -0.999671 
0.0256242 -0.0256242 -0.999343 0.0256242 -0.999343 -0.0256242 0.999343 -0.0256242 -0.0256242 
-0.0256242 -0.0256242 -0.999343 -0.57735 -0.57735 -0.57735 -0.57735 -0.57735 -0.57735 
0 0 -1 0 0 -1 -0.697747 0.0183618 -0.716109 
0.697865 0 -0.71623 0 0 -1 0 0 -1 
0 0 -1 0 0 -1 0.0256326 0 -0.999671 
0.999671 0 -0.0256326 -0.0256242 -0.0256242 -0.999343 -0.57735 -0.57735 -0.57735 
-0.706991 -0.018128 -0.706991 0 0 -1 0 0 -1 
0.0256326 0 -0.999671 0.716109 0.697747 -0.0183618 0.697747 0.716109 -0.0183618 
-0.572287 0.587347 -0.572287 -0.0256326 0 -0.999671 -0.582284 0.567354 -0.582284 
0 0 -1 0 0 -1 0 0 -1 
0 0 -1 0.0256326 0 -0.999671 0.999671 0 -0.0256326 
-0.0256326 0 -0.999671 -0.707107 0 -0.707107 0 0 -1 
0 0 -1 0.0256326 0 -0.999671 0.999671 0 -0.0256326 
-0.0256242 0.0256242 -0.999343 -0.706991 0.018128 -0.706991 0 0.0256326 -0.999671 
0 0 -1 0 0 -1 0 0 -1 
0.0256326 0 -0.999671 0.999671 0 -0.0256326 -0.0256326 0 -0.999671 
-0.582284 -0.567354 -0.582284 0 0 -1 0 0 -1 
0.0256242 0.0256242 -0.999343 0.999343 0.0256242 -0.0256242 -0.0256242 0.999343 -0.0256242 
-0.567354 0.582284 -0.582284 -0.582284 0.567354 -0.582284 -0.0256326 0 -0.999671 
0 0 -1 0 0 -1 0.0256326 0 -0.999671 
0.999671 0 -0.0256326 -0.0256326 0 -0.999671 -0.582284 -0.567354 -0.582284 
-0.999671 0 -0.0256326 0 0 -1 0 0 -1 
0.0256242 0.0256242 -0.999343 0.57735 0.57735 -0.57735 0.57735 0.57735 -0.57735 
-0.0256326 0 -0.999671 -0.707107 0 -0.707107 0 0 -1 
0 0 -1 0.0256326 0 -0.999671 0.999671 0 -0.0256326 
-0.716109 0.697747 -0.0183618 -0.716109 0.697747 -0.0183618 -0.0256326 0 -0.999671 
0.0256242 0.0256242 -0.999343 0.706991 0.706991 -0.018128 0.706991 0.706991 -0.018128 
-0.0256326 0 -0.999671 -0.707107 0 -0.707107 0 0 -1 
0 0 -1 0.0256242 0.0256242 -0.999343 0.999343 0.0256242 -0.0256242 
0 0.0256326 -0.999671 -0.999308 0.0262976 -0.0262976 0.567354 0.582284 -0.582284 
0.57735 0.57735 -0.57735 -0.0256242 0.0256242 -0.999343 -0.706991 0.018128 -0.706991 
0 0.0256326 -0.999671 0.0256242 0.0256242 -0.999343 0.706991 0.706991 -0.018128 
0.706991 0.706991 -0.018128 0 0.999671 -0.0256326 -0.0256242 0.999343 -0.0256242 
0 0.999671 -0.0256326 0.0256242 0.999343 -0.0256242 0 0 -1 
0 -0.697865 -0.71623 -0.999654 0 -0.0263067 0.572287 -0.572287 -0.587347 
-0.572287 0.572287 -0.587347 0.567354 -0.582284 -0.582284 -0.577217 0.562027 -0.592407 
0 -0.0256326 -0.999671 0.567354 -0.582284 -0.582284 -0.0256242 0.0256242 -0.999343 
-0.706991 0.018128 -0.706991 0.582284 -0.567354 -0.582284 0.0256326 0 -0.999671 
0.582284 -0.567354 -0.582284 -0.0256242 0.0256242 -0.999343 -0.68826 0 -0.725464 
0.567354 -0.582284 -0.582284 -0.697747 -0.0183618 -0.716109 0 -0.707107 -0.707107 
0.567354 -0.582284 -0.582284 -0.0256242 -0.0256242 -0.999343 -0.0256242 -0.0256242 -0.999343 
-0.706991 -0.018128 -0.706991 -0.567354 -0.582284 -0.582284 -0.697747 -0.0183618 -0.716109 
0.57735 -0.57735 -0.57735 0.57735 -0.57735 -0.57735 0.57735 -0.57735 -0.57735 
-0.707107 0 -0.707107 -0.707107 0 -0.707107 0.582284 -0.582284 -0.567354 
0.999671 -0.0256326 0 -0.707107 0 -0.707107 -0.707107 0 -0.707107 
0.71623 -0.697865 0 -0.582284 -0.567354 -0.582284 -0.582284 -0.567354 -0.582284 
0.697865 -0.71623 0 0.0256326 -0.999671 0 0.999671 -0.0256326 0 
-0.57735 -0.57735 -0.57735 -0.57735 -0.57735 -0.57735 -0.57735 -0.57735 -0.57735 
1 0 0 -0.706991 -0.018128 -0.706991 -0.57735 -0.57735 -0.57735 
-0.706991 -0.018128 -0.706991 1 0 0 -0.707107 0 -0.707107 
-0.707107 0 -0.707107 0.71623 -0.697865 0 -0.582284 -0.567354 -0.582284 
-0.582284 -0.567354 -0.582284 0.697865 -0.71623 0 0.0256326 -0.999671 0 
0.999671 -0.0256326 0 -0.57735 -0.57735 -0.57735 -0.57735 -0.57735 -0.57735 
-0.57735 -0.57735 -0.57735 1 0 0 -0.706991 -0.018128 -0.706991 
-0.57735 -0.57735 -0.57735 -0.706991 -0.018128 -0.706991 0.0186049 0.706984 -0.706984 
0 0.71623 -0.697865 -0.582284 0.567354 -0.582284 -0.0183618 0.697747 -0.716109 
1 0 0 -0.707107 0 -0.707107 -0.707107 0 -0.707107 
0.0263067 0 -0.999654 -0.706991 0.018128 -0.706991 -0.0256242 0.0256242 -0.999343 
1 0 0 -0.582284 -0.567354 -0.582284 -0.707107 0 -0.707107 
0.71623 0 -0.697865 -0.018128 0.706991 -0.706991 -0.572287 0.587347 -0.572287 
-0.582284 0.567354 -0.582284 -0.582284 0.567354 -0.582284 1 0 0 
-0.716109 0.0183618 -0.697747 0.57735 0.57735 -0.57735 0.706991 0.018128 -0.706991 
-0.707107 0 -0.707107 -0.707107 0 -0.707107 1 0 0 
-0.707107 0.707107 0 -0.71623 0.697865 0 0.587347 0.572287 -0.572287 
0.572287 0.587347 -0.572287 0.018128 0.706991 -0.706991 -0.707107 0 -0.707107 
-0.707107 0 -0.707107 0.999671 0.0256326 0 -0.999671 0.0256326 0 
0.57735 0.57735 -0.57735 0.706991 0.018128 -0.706991 -0.706991 0.018128 -0.706991 
-0.706991 0.018128 -0.706991 0.582284 0.582284 -0.567354 0.582284 0.582284 -0.567354 
-0.0256326 0.999671 0 0.0256242 0.999343 -0.0256242 -0.018128 0.706991 -0.706991 
0 1 0 0 1 0 0.0183618 0.716109 -0.697747 
-0.018128 -0.706991 -0.706991 -0.018128 -0.706991 -0.706991 -0.999343 -0.0256242 -0.0256242 
0.0256242 -0.0256242 -0.999343 0.0256242 -0.999343 -0.0256242 0.999343 -0.0256242 -0.0256242 
-0.71623 0 -0.697865 0.582284 -0.567354 -0.582284 0.582284 -0.567354 -0.582284 
-0.582284 0.567354 -0.582284 -0.707107 0 -0.707107 0.567354 -0.582284 -0.582284 
0.567354 -0.582284 -0.582284 0.0256242 -0.0256242 -0.999343 0.018128 -0.706991 -0.706991 
0.999343 -0.0256242 -0.0256242 -0.707107 0 -0.707107 -0.707107 0 -0.707107 
0.582284 -0.567354 -0.582284 0.582284 -0.567354 -0.582284 -0.0256326 0 -0.999671 
-0.707107 0 -0.707107 0 0 -1 -0.697865 0 -0.71623 
0.567354 -0.582284 -0.582284 0.567354 -0.582284 -0.582284 0.0256242 -0.0256242 -0.999343 
0.0256242 -0.999343 -0.0256242 0.999343 -0.0256242 -0.0256242 -0.707107 0 -0.707107 
-0.707107 0 -0.707107 0.582284 -0.567354 -0.582284 0.999671 0 -0.0256326 
-0.707107 0 -0.707107 -0.707107 0 -0.707107 1 0 0 
-0.707107 0 -0.707107 -0.707107 0 -0.707107 0.587347 -0.572287 -0.572287 
-0.582284 -0.567354 -0.582284 -0.582284 -0.567354 -0.582284 0.572287 -0.587347 -0.572287 
0.0256326 -0.999671 0 0.999671 -0.0256326 0 -0.57735 -0.57735 -0.57735 
-0.57735 -0.57735 -0.57735 -0.57735 -0.57735 -0.57735 1 0 0 
-0.706991 -0.018128 -0.706991 -0.57735 -0.57735 -0.57735 -0.706991 -0.018128 -0.706991 
1 0 0 -0.707107 0 -0.707107 -0.707107 0 -0.707107 
0.587347 -0.572287 -0.572287 -0.582284 -0.567354 -0.582284 -0.582284 -0.567354 -0.582284 
0.572287 -0.587347 -0.572287 0.0256326 -0.999671 0 0.999671 -0.0256326 0 
-0.57735 -0.57735 -0.57735 -0.57735 -0.57735 -0.57735 -0.57735 -0.57735 -0.57735 
1 0 0 -0.706991 -0.018128 -0.706991 -0.57735 -0.57735 -0.57735 
-0.706991 -0.018128 -0.706991 0 0.697865 -0.71623 1 0 0 
-0.707107 0 -0.707107 -0.707107 0 -0.707107 0 0 -1 
1 0 0 -0.707107 0 -0.707107 -0.707107 0 -0.707107 
0.697865 0 -0.71623 0 0.697865 -0.71623 -0.572287 0.572287 -0.587347 
1 0 0 -0.706991 0.018128 -0.706991 -0.706991 0.018128 -0.706991 
0.697865 0 -0.71623 0 0 -1 -0.697865 0 -0.71623 
1 0 0 -0.0256242 0.999343 -0.0256242 -0.572287 0.587347 -0.572287 
-0.587347 0.572287 -0.572287 0.572287 0.572287 -0.587347 0 0.697865 -0.71623 