# vtk DataFile Version 3.0
vtk output
ASCII
DATASET POLYDATA
POINTS 5594 float
103 142 45.1667 103 141.167 46 102.167 142 46 
104 142 45.1667 104 141.167 46 104.833 142 46 
102 143 45.1667 102 142.167 46 101.167 143 46 
103 143 45.1667 104 143 45.1667 104.833 143 46 
101 144 45.1667 101 143.167 46 100.167 144 46 
102 144 45.1667 103 144 45.1667 104 144 45.1667 
105 143.167 46 105 144 45.1667 106 144 45.1667 
106 143.167 46 106.833 144 46 100 145 45.1667 
100 144.167 46 99.1667 145 46 101 145 45.1667 
102 145 45.1667 103 145 45.1667 104 145 45.1667 
105 145 45.1667 106 145 45.1667 106.833 145 46 
100 145.833 46 100.167 146 46 101 146 45.1667 
102 146 45.1667 103 146 45.1667 104 146 45.1667 
105 146 45.1667 106 146 45.1667 106.833 146 46 
101 147 45.1667 100.167 147 46 102 147 45.1667 
103 147 45.1667 104 147 45.1667 105 147 45.1667 
106 147 45.1667 106.833 147 46 101 148 45.1667 
100.167 148 46 102 148 45.1667 103 148 45.1667 
104 148 45.1667 105 148 45.1667 106 148 45.1667 
107 147.167 46 107 148 45.1667 108 148 45.1667 
108 147.167 46 108.833 148 46 101 149 45.1667 
100.167 149 46 102 149 45.1667 103 149 45.1667 
104 149 45.1667 105 149 45.1667 106 149 45.1667 
107 149 45.1667 108 149 45.1667 108.833 149 46 
101 150 45.1667 100.167 150 46 102 150 45.1667 
103 150 45.1667 104 150 45.1667 105 150 45.1667 
106 150 45.1667 107 150 45.1667 108 150 45.1667 
109 149.167 46 109 150 45.1667 110 150 45.1667 
110 149.167 46 110.833 150 46 101 151 45.1667 
100.167 151 46 102 151 45.1667 103 151 45.1667 
104 151 45.1667 105 151 45.1667 106 151 45.1667 
107 151 45.1667 108 151 45.1667 109 151 45.1667 
110 151 45.1667 110.833 151 46 101 152 45.1667 
100.167 152 46 102 152 45.1667 103 152 45.1667 
104 152 45.1667 105 152 45.1667 106 152 45.1667 
107 152 45.1667 108 152 45.1667 109 152 45.1667 
110 152 45.1667 111 151.167 46 111 152 45.1667 
112 152 45.1667 112 151.167 46 112.833 152 46 
101 153 45.1667 100.167 153 46 102 153 45.1667 
103 153 45.1667 104 153 45.1667 105 153 45.1667 
106 153 45.1667 107 153 45.1667 108 153 45.1667 
109 153 45.1667 110 153 45.1667 111 153 45.1667 
112 153 45.1667 112.833 153 46 101 154 45.1667 
100.167 154 46 102 154 45.1667 103 154 45.1667 
104 154 45.1667 105 154 45.1667 106 154 45.1667 
107 154 45.1667 108 154 45.1667 109 154 45.1667 
110 154 45.1667 111 154 45.1667 112 154 45.1667 
112.833 154 46 101 155 45.1667 100.167 155 46 
102 155 45.1667 103 155 45.1667 104 155 45.1667 
105 155 45.1667 106 155 45.1667 107 155 45.1667 
108 155 45.1667 109 155 45.1667 110 155 45.1667 
111 155 45.1667 112 155 45.1667 112.833 155 46 
101 156 45.1667 100.167 156 46 102 156 45.1667 
103 156 45.1667 104 156 45.1667 105 156 45.1667 
106 156 45.1667 107 156 45.1667 108 156 45.1667 
109 156 45.1667 110 156 45.1667 111 156 45.1667 
112 156 45.1667 112.833 156 46 101 157 45.1667 
100.167 157 46 102 157 45.1667 103 157 45.1667 
104 157 45.1667 105 157 45.1667 106 157 45.1667 
107 157 45.1667 108 157 45.1667 109 157 45.1667 
110 157 45.1667 111 157 45.1667 112 157 45.1667 
112.833 157 46 101 158 45.1667 100.167 158 46 
102 158 45.1667 103 158 45.1667 104 158 45.1667 
105 158 45.1667 106 158 45.1667 107 158 45.1667 
108 158 45.1667 109 158 45.1667 110 158 45.1667 
111 158 45.1667 112 158 45.1667 112.833 158 46 
101 159 45.1667 100.167 159 46 102 159 45.1667 
103 159 45.1667 104 159 45.1667 105 159 45.1667 
106 159 45.1667 107 159 45.1667 108 159 45.1667 
109 159 45.1667 110 159 45.1667 111 159 45.1667 
111.833 159 46 112 158.833 46 101 160 45.1667 
100.167 160 46 102 160 45.1667 103 160 45.1667 
104 160 45.1667 105 160 45.1667 106 160 45.1667 
107 160 45.1667 108 160 45.1667 109 160 45.1667 
110 160 45.1667 110.833 160 46 111 159.833 46 
101 161 45.1667 100.167 161 46 102 161 45.1667 
103 161 45.1667 104 161 45.1667 105 161 45.1667 
106 161 45.1667 107 161 45.1667 108 161 45.1667 
109 161 45.1667 110 161 45.1667 110.833 161 46 
101 162 45.1667 100.167 162 46 102 162 45.1667 
103 162 45.1667 104 162 45.1667 105 162 45.1667 
106 162 45.1667 107 162 45.1667 108 162 45.1667 
109 162 45.1667 110 162 45.1667 110.833 162 46 
101 163 45.1667 100.167 163 46 102 163 45.1667 
103 163 45.1667 104 163 45.1667 105 163 45.1667 
106 163 45.1667 107 163 45.1667 108 163 45.1667 
109 163 45.1667 110 163 45.1667 110.833 163 46 
101 164 45.1667 100.167 164 46 102 164 45.1667 
103 164 45.1667 104 164 45.1667 105 164 45.1667 
106 164 45.1667 107 164 45.1667 108 164 45.1667 
109 164 45.1667 110 164 45.1667 110.833 164 46 
101 165 45.1667 100.167 165 46 102 165 45.1667 
103 165 45.1667 104 165 45.1667 105 165 45.1667 
106 165 45.1667 107 165 45.1667 108 165 45.1667 
109 165 45.1667 109.833 165 46 110 164.833 46 
101 166 45.1667 100.167 166 46 102 166 45.1667 
103 166 45.1667 104 166 45.1667 105 166 45.1667 
106 166 45.1667 107 166 45.1667 108 166 45.1667 
108.833 166 46 109 165.833 46 100 167 45.1667 
100 166.167 46 99.1667 167 46 101 167 45.1667 
102 167 45.1667 103 167 45.1667 104 167 45.1667 
105 167 45.1667 106 167 45.1667 107 167 45.1667 
108 167 45.1667 108.833 167 46 99 168 45.1667 
99 167.167 46 98.1667 168 46 100 168 45.1667 
101 168 45.1667 102 168 45.1667 103 168 45.1667 
104 168 45.1667 105 168 45.1667 106 168 45.1667 
107 168 45.1667 108 168 45.1667 108.833 168 46 
99 169 45.1667 98.1667 169 46 100 169 45.1667 
101 169 45.1667 102 169 45.1667 103 169 45.1667 
104 169 45.1667 105 169 45.1667 106 169 45.1667 
107 169 45.1667 108 169 45.1667 108.833 169 46 
99 170 45.1667 98.1667 170 46 100 170 45.1667 
101 170 45.1667 102 170 45.1667 103 170 45.1667 
104 170 45.1667 105 170 45.1667 106 170 45.1667 
107 170 45.1667 108 170 45.1667 108.833 170 46 
99 171 45.1667 98.1667 171 46 100 171 45.1667 
101 171 45.1667 102 171 45.1667 103 171 45.1667 
104 171 45.1667 105 171 45.1667 106 171 45.1667 
107 171 45.1667 107.833 171 46 108 170.833 46 
99 172 45.1667 98.1667 172 46 100 172 45.1667 
101 172 45.1667 102 172 45.1667 103 172 45.1667 
104 172 45.1667 105 172 45.1667 106 172 45.1667 
106.833 172 46 107 171.833 46 98 173 45.1667 
98 172.167 46 97.1667 173 46 99 173 45.1667 
100 173 45.1667 101 173 45.1667 102 173 45.1667 
103 173 45.1667 104 173 45.1667 105 173 45.1667 
105.833 173 46 106 172.833 46 98 173.833 46 
98.1667 174 46 99 174 45.1667 100 174 45.1667 
101 174 45.1667 102 174 45.1667 103 174 45.1667 
104 174 45.1667 104.833 174 46 105 173.833 46 
99 175 45.1667 98.1667 175 46 100 175 45.1667 
101 175 45.1667 102 175 45.1667 103 175 45.1667 
104 175 45.1667 104.833 175 46 99 176 45.1667 
98.1667 176 46 100 176 45.1667 101 176 45.1667 
102 176 45.1667 103 176 45.1667 104 176 45.1667 
104.833 176 46 99 177 45.1667 98.1667 177 46 
100 177 45.1667 101 177 45.1667 102 177 45.1667 
103 177 45.1667 104 177 45.1667 104.833 177 46 
99 178 45.1667 98.1667 178 46 100 178 45.1667 
101 178 45.1667 102 178 45.1667 103 178 45.1667 
104 178 45.1667 104.833 178 46 99 179 45.1667 
98.1667 179 46 100 179 45.1667 101 179 45.1667 
102 179 45.1667 103 179 45.1667 103.833 179 46 
104 178.833 46 99 180 45.1667 98.1667 180 46 
100 180 45.1667 101 180 45.1667 102 180 45.1667 
102.833 180 46 103 179.833 46 99 181 45.1667 
98.1667 181 46 100 181 45.1667 101 181 45.1667 
101.833 181 46 102 180.833 46 99 181.833 46 
100 181.833 46 101 181.833 46 102 142 46.1667 
102 141.167 47 101.167 142 47 103 141.167 47 
104 141.167 47 104.833 142 47 101 143 46.1667 
101 142.167 47 100.167 143 47 104.833 143 47 
100 144 46.1667 100 143.167 47 99.1667 144 47 
105 143.167 47 106 143.167 47 106.833 144 47 
99.1667 145 47 106.833 145 47 100 145.833 47 
100.167 146 47 106.833 146 47 100.167 147 47 
106.833 147 47 100.167 148 47 107 147.167 47 
108 147.167 47 108.833 148 47 100.167 149 47 
108.833 149 47 100.167 150 47 109 149.167 47 
110 149.167 47 110.833 150 47 100.167 151 47 
110.833 151 47 100.167 152 47 111 151.167 47 
112 151.167 47 112.833 152 47 100.167 153 47 
112.833 153 47 100.167 154 47 112.833 154 47 
100.167 155 47 112.833 155 47 100.167 156 47 
112.833 156 47 100.167 157 47 112.833 157 47 
100.167 158 47 112.833 158 47 100.167 159 47 
112 159 46.1667 112.833 159 47 100.167 160 47 
110.833 160 47 111 159.833 47 112 159.833 47 
100.167 161 47 110.833 161 47 100.167 162 47 
110.833 162 47 100.167 163 47 110.833 163 47 
100.167 164 47 110.833 164 47 100.167 165 47 
110 165 46.1667 110.833 165 47 100.167 166 47 
108.833 166 47 109 165.833 47 110 165.833 47 
100 166.167 47 99.1667 167 47 108.833 167 47 
99 167.167 47 98.1667 168 47 108.833 168 47 
98.1667 169 47 108.833 169 47 98.1667 170 47 
108.833 170 47 98.1667 171 47 107.833 171 47 
108 170.833 47 98.1667 172 47 106.833 172 47 
107 171.833 47 98 172.167 47 97.1667 173 47 
106 173 46.1667 106.833 173 47 98 174 46.1667 
97.1667 174 47 104.833 174 47 105 173.833 47 
106 173.833 47 98 175 46.1667 97.1667 175 47 
104.833 175 47 98 176 46.1667 97.1667 176 47 
104.833 176 47 98 177 46.1667 97.1667 177 47 
104.833 177 47 98 178 46.1667 97.1667 178 47 
104.833 178 47 98 179 46.1667 97.1667 179 47 
103.833 179 47 104 178.833 47 98 180 46.1667 
97.1667 180 47 102.833 180 47 103 179.833 47 
98 181 46.1667 97.1667 181 47 102 181 46.1667 
102.833 181 47 98 181.833 47 99 181.833 47 
100 181.833 47 101 181.833 47 102 181.833 47 
101 142 47.1667 101 141.167 48 100.167 142 48 
102 141.167 48 103 141.167 48 104 141.167 48 
104.833 142 48 100.167 143 48 104.833 143 48 
100 144 47.8333 100.167 144 48 105 143.167 48 
106 143.167 48 106.833 144 48 100 145 47.8333 
100.167 145 48 106.833 145 48 100.167 146 48 
106.833 146 48 100.167 147 48 106.833 147 48 
100.167 148 48 107 147.167 48 108 147.167 48 
108.833 148 48 100.167 149 48 108.833 149 48 
100.167 150 48 109 149.167 48 110 149.167 48 
110.833 150 48 100.167 151 48 110.833 151 48 
100.167 152 48 111 151.167 48 112 151.167 48 
112.833 152 48 100.167 153 48 112.833 153 48 
100.167 154 48 113 153.167 48 113 154 47.1667 
114 154 47.1667 114 153.167 48 114.833 154 48 
100.167 155 48 113 155 47.1667 114 155 47.1667 
114.833 155 48 100.167 156 48 113 156 47.1667 
[...]
POINT_DATA 5594
SCALARS scalars float
LOOKUP_TABLE default
1 1 1 1 1 1 1 1 1 
1 1 1 1 1 1 1 1 1 
1 1 1 1 1 1 1 1 1 
1 1 1 1 1 1 1 1 1 
1 1 1 1 1 1 1 1 1 
1 1 1 1 1 1 1 1 1 
1 1 1 1 1 1 1 1 1 
1 1 1 1 1 1 1 1 1 
1 1 1 1 1 1 1 1 1 
1 1 1 1 1 1 1 1 1 
1 1 1 1 1 1 1 1 1 
1 1 1 1 1 1 1 1 1 
1 1 1 1 1 1 1 1 1 
1 1 1 1 1 1 1 1 1 
1 1 1 1 1 1 1 1 1 
1 1 1 1 1 1 1 1 1 
1 1 1 1 1 1 1 1 1 
1 1 1 1 1 1 1 1 1 
1 1 1 1 1 1 1 1 1 
1 1 1 1 1 1 1 1 1 
1 1 1 1 1 1 1 1 1 
1 1 1 1 1 1 1 1 1 
1 1 1 1 1 1 1 1 1 
1 1 1 1 1 1 1 1 1 
1 1 1 1 1 1 1 1 1 
1 1 1 1 1 1 1 1 1 
1 1 1 1 1 1 1 1 1 
1 1 1 1 1 1 1 1 1 
1 1 1 1 1 1 1 1 1 
1 1 1 1 1 1 1 1 1 
1 1 1 1 1 1 1 1 1 
1 1 1 1 1 1 1 1 1 
1 1 1 1 1 1 1 1 1 
1 1 1 1 1 1 1 1 1 
1 1 1 1 1 1 1 1 1 
1 1 1 1 1 1 1 1 1 
1 1 1 1 1 1 1 1 1 
1 1 1 1 1 1 1 1 1 
1 1 1 1 1 1 1 1 1 
1 1 1 1 1 1 1 1 1 
1 1 1 1 1 1 1 1 1 
1 1 1 1 1 1 1 1 1 
1 1 1 1 1 1 1 1 1 
1 1 1 1 1 1 1 1 1 
1 1 1 1 1 1 1 1 1 
1 1 1 1 1 1 1 1 1 
1 1 1 1 1 1 1 1 1 
1 1 1 1 1 1 1 1 1 
1 1 1 1 1 1 1 1 1 
1 1 1 1 1 1 1 1 1 
1 1 1 1 1 1 1 1 1 
1 1 1 1 1 1 1 1 1 
1 1 1 1 1 1 1 1 1 
1 1 1 1 1 1 1 1 1 
1 1 1 1 1 1 1 1 1 
1 1 1 1 1 1 1 1 1 
1 1 1 1 1 1 1 1 1 
1 1 1 1 1 1 1 1 1 
1 1 1 1 1 1 1 1 1 
1 1 1 1 1 1 1 1 1 
1 1 1 1 1 1 1 1 1 
1 1 1 1 1 1 1 1 1 
1 1 1 1 1 1 1 1 1 
1 1 1 1 1 1 1 1 1 
1 1 1 1 1 1 1 1 1 
1 1 1 1 1 1 1 1 1 
1 1 1 1 1 1 1 1 1 
1 1 1 1 1 1 1 1 1 
1 1 1 1 1 1 1 1 1 
1 1 1 1 1 1 1 1 1 
1 1 1 1 1 1 1 1 1 
1 1 1 1 1 1 1 1 1 
1 1 1 1 1 1 1 1 1 
1 1 1 1 1 1 1 1 1 
1 1 1 1 1 1 1 1 1 
1 1 1 1 1 1 1 1 1 
1 1 1 1 1 1 1 1 1 
1 1 1 1 1 1 1 1 1 
1 1 1 1 1 1 1 1 1 
1 1 1 1 1 1 1 1 1 
1 1 1 1 1 1 1 1 1 
1 1 1 1 1 1 1 1 1 
1 1 1 1 1 1 1 1 1 
1 1 1 1 1 1 1 1 1 
1 1 1 1 1 1 1 1 1 
1 1 1 1 1 1 1 1 1 
1 1 1 1 1 1 1 1 1 
1 1 1 1 1 1 1 1 1 
1 1 1 1 1 1 1 1 1 
1 1 1 1 1 1 1 1 1 
1 1 1 1 1 1 1 1 1 
1 1 1 1 1 1 1 1 1 
1 1 1 1 1 1 1 1 1 
1 1 1 1 1 1 1 1 1 
1 1 1 1 1 1 1 1 1 
1 1 1 1 1 1 1 1 1 
1 1 1 1 1 1 1 1 1 
1 1 1 1 1 1 1 1 1 
1 1 1 1 1 1 1 1 1 
1 1 1 1 1 1 1 1 1 
1 1 1 1 1 1 1 1 1 
1 1 1 1 1 1 1 1 1 
1 1 1 1 1 1 1 1 1 
1 1 1 1 1 1 1 1 1 
1 1 1 1 1 1 1 1 1 
1 1 1 1 1 1 1 1 1 
1 1 1 1 1 1 1 1 1 
1 1 1 1 1 1 1 1 1 
1 1 1 1 1 1 1 1 1 
1 1 1 1 1 1 1 1 1 
1 1 1 1 1 1 1 1 1 
1 1 1 1 1 1 1 1 1 
1 1 1 1 1 1 1 1 1 
1 1 1 1 1 1 1 1 1 
1 1 1 1 1 1 1 1 1 
1 1 1 1 1 1 1 1 1 
1 1 1 1 1 1 1 1 1 
1 1 1 1 1 1 1 1 1 
1 1 1 1 1 1 1 1 1 
1 1 1 1 1 1 1 1 1 
1 1 1 1 1 1 1 1 1 
1 1 1 1 1 1 1 1 1 
1 1 1 1 1 1 1 1 1 
1 1 1 1 1 1 1 1 1 
1 1 1 1 1 1 1 1 1 
1 1 1 1 1 1 1 1 1 
1 1 1 1 1 1 1 1 1 
1 1 1 1 1 1 1 1 1 
1 1 1 1 1 1 1 1 1 
1 1 1 1 1 1 1 1 1 
1 1 1 1 1 1 1 1 1 
1 1 1 1 1 1 1 1 1 
1 1 1 1 1 1 1 1 1 
1 1 1 1 1 1 1 1 1 
1 1 1 1 1 1 1 1 1 
1 1 1 1 1 1 1 1 1 
1 1 1 1 1 1 1 1 1 
1 1 1 1 1 1 1 1 1 
1 1 1 1 1 1 1 1 1 
1 1 1 1 1 1 1 1 1 
1 1 1 1 1 1 1 1 1 
1 1 1 1 1 1 1 1 1 
1 1 1 1 1 1 1 1 1 
1 1 1 1 1 1 1 1 1 
1 1 1 1 1 1 1 1 1 
1 1 1 1 1 1 1 1 1 
1 1 1 1 1 1 1 1 1 
1 1 1 1 1 1 1 1 1 
1 1 1 1 1 1 1 1 1 
1 1 1 1 1 1 1 1 1 
1 1 1 1 1 1 1 1 1 
1 1 1 1 1 1 1 1 1 
1 1 1 1 1 1 1 1 1 
1 1 1 1 1 1 1 1 1 
1 1 1 1 1 1 1 1 1 
1 1 1 1 1 1 1 1 1 
1 1 1 1 1 1 1 1 1 
1 1 1 1 1 1 1 1 1 
1 1 1 1 1 1 1 1 1 
1 1 1 1 1 1 1 1 1 
1 1 1 1 1 1 1 1 1 
1 1 1 1 1 1 1 1 1 
1 1 1 1 1 1 1 1 1 
1 1 1 1 1 1 1 1 1 
1 1 1 1 1 1 1 1 1 
1 1 1 1 1 1 1 1 1 
1 1 1 1 1 1 1 1 1 
1 1 1 1 1 1 1 1 1 
1 1 1 1 1 1 1 1 1 
1 1 1 1 1 1 1 1 1 
1 1 1 1 1 1 1 1 1 
1 1 1 1 1 1 1 1 1 
1 1 1 1 1 1 1 1 1 
1 1 1 1 1 1 1 1 1 
1 1 1 1 1 1 1 1 1 
1 1 1 1 1 1 1 1 1 
1 1 1 1 1 1 1 1 1 
1 1 1 1 1 1 1 1 1 
1 1 1 1 1 1 1 1 1 
1 1 1 1 1 1 1 1 1 
1 1 1 1 1 1 1 1 1 
1 1 1 1 1 1 1 1 1 
1 1 1 1 1 1 1 1 1 
1 1 1 1 1 1 1 1 1 
1 1 1 1 1 1 1 1 1 
1 1 1 1 1 1 1 1 1 
1 1 1 1 1 1 1 1 1 
1 1 1 1 1 1 1 1 1 
1 1 1 1 1 1 1 1 1 
1 1 1 1 1 1 1 1 1 
1 1 1 1 1 1 1 1 1 
1 1 1 1 1 1 1 1 1 
1 1 1 1 1 1 1 1 1 
1 1 1 1 1 1 1 1 1 
1 1 1 1 1 1 1 1 1 
1 1 1 1 1 1 1 1 1 
1 1 1 1 1 1 1 1 1 
1 1 1 1 1 1 1 1 1 
1 1 1 1 1 1 1 1 1 
1 1 1 1 1 1 1 1 1 
1 1 1 1 1 1 1 1 1 
1 1 1 1 1 1 1 1 1 
1 1 1 1 1 1 1 1 1 
1 1 1 1 1 1 1 1 1 
1 1 1 1 1 1 1 1 1 
1 1 1 1 1 1 1 1 1 
1 1 1 1 1 1 1 1 1 
1 1 1 1 1 1 1 1 1 
1 1 1 1 1 1 1 1 1 
1 1 1 1 1 1 1 1 1 
1 1 1 1 1 1 1 1 1 
1 1 1 1 1 1 1 1 1 
1 1 1 1 1 1 1 1 1 
1 1 1 1 1 1 1 1 1 
1 1 1 1 1 1 1 1 1 
1 1 1 1 1 1 1 1 1 
1 1 1 1 1 1 1 1 1 
1 1 1 1 1 1 1 1 1 
1 1 1 1 1 1 1 1 1 
1 1 1 1 1 1 1 1 1 
1 1 1 1 1 1 1 1 1 
1 1 1 1 1 1 1 1 1 
1 1 1 1 1 1 1 1 1 
1 1 1 1 1 1 1 1 1 
1 1 1 1 1 1 1 1 1 
1 1 1 1 1 1 1 1 1 
1 1 1 1 1 1 1 1 1 
1 1 1 1 1 1 1 1 1 
1 1 1 1 1 1 1 1 1 
1 1 1 1 1 1 1 1 1 
1 1 1 1 1 1 1 1 1 
1 1 1 1 1 1 1 1 1 
1 1 1 1 1 1 1 1 1 
1 1 1 1 1 1 1 1 1 
1 1 1 1 1 1 1 1 1 
1 1 1 1 1 1 1 1 1 
1 1 1 1 1 1 1 1 1 
1 1 1 1 1 1 1 1 1 
1 1 1 1 1 1 1 1 1 
1 1 1 1 1 1 1 1 1 
1 1 1 1 1 1 1 1 1 
1 1 1 1 1 1 1 1 1 
1 1 1 1 1 1 1 1 1 
1 1 1 1 1 1 1 1 1 
1 1 1 1 1 1 1 1 1 
1 1 1 1 1 1 1 1 1 
1 1 1 1 1 1 1 1 1 
1 1 1 1 1 1 1 1 1 
1 1 1 1 1 1 1 1 1 
1 1 1 1 1 1 1 1 1 
1 1 1 1 1 1 1 1 1 
1 1 1 1 1 1 1 1 1 
1 1 1 1 1 1 1 1 1 
1 1 1 1 1 1 1 1 1 
1 1 1 1 1 1 1 1 1 
1 1 1 1 1 1 1 1 1 
1 1 1 1 1 1 1 1 1 
1 1 1 1 1 1 1 1 1 
1 1 1 1 1 1 1 1 1 
1 1 1 1 1 1 1 1 1 
1 1 1 1 1 1 1 1 1 
1 1 1 1 1 1 1 1 1 
1 1 1 1 1 1 1 1 1 
1 1 1 1 1 1 1 1 1 
1 1 1 1 1 1 1 1 1 
1 1 1 1 1 1 1 1 1 
1 1 1 1 1 1 1 1 1 
1 1 1 1 1 1 1 1 1 
1 1 1 1 1 1 1 1 1 
1 1 1 1 1 1 1 1 1 
1 1 1 1 1 1 1 1 1 
1 1 1 1 1 1 1 1 1 
1 1 1 1 1 1 1 1 1 
1 1 1 1 1 1 1 1 1 
1 1 1 1 1 1 1 1 1 
1 1 1 1 1 1 1 1 1 
1 1 1 1 1 1 1 1 1 
1 1 1 1 1 1 1 1 1 
1 1 1 1 1 1 1 1 1 
1 1 1 1 1 1 1 1 1 
1 1 1 1 1 1 1 1 1 
1 1 1 1 1 1 1 1 1 
1 1 1 1 1 1 1 1 1 
1 1 1 1 1 1 1 1 1 
1 1 1 1 1 1 1 1 1 
1 1 1 1 1 1 1 1 1 
1 1 1 1 1 1 1 1 1 
1 1 1 1 1 1 1 1 1 
1 1 1 1 1 1 1 1 1 
1 1 1 1 1 1 1 1 1 
1 1 1 1 1 1 1 1 1 
1 1 1 1 1 1 1 1 1 
1 1 1 1 1 1 1 1 1 
1 1 1 1 1 1 1 1 1 
1 1 1 1 1 1 1 1 1 
1 1 1 1 1 1 1 1 1 
1 1 1 1 1 1 1 1 1 
1 1 1 1 1 1 1 1 1 
1 1 1 1 1 1 1 1 1 
1 1 1 1 1 1 1 1 1 
1 1 1 1 1 1 1 1 1 
1 1 1 1 1 1 1 1 1 
1 1 1 1 1 1 1 1 1 
1 1 1 1 1 1 1 1 1 
1 1 1 1 1 1 1 1 1 
1 1 1 1 1 1 1 1 1 
1 1 1 1 1 1 1 1 1 
1 1 1 1 1 1 1 1 1 
1 1 1 1 1 1 1 1 1 
1 1 1 1 1 1 1 1 1 
1 1 1 1 1 1 1 1 1 
1 1 1 1 1 1 1 1 1 
1 1 1 1 1 1 1 1 1 
1 1 1 1 1 1 1 1 1 
1 1 1 1 1 1 1 1 1 
1 1 1 1 1 1 1 1 1 
1 1 1 1 1 1 1 1 1 
1 1 1 1 1 1 1 1 1 
1 1 1 1 1 1 1 1 1 
1 1 1 1 1 1 1 1 1 
1 1 1 1 1 1 1 1 1 
1 1 1 1 1 1 1 1 1 
1 1 1 1 1 1 1 1 1 
1 1 1 1 1 1 1 1 1 
1 1 1 1 1 1 1 1 1 
1 1 1 1 1 1 1 1 1 
1 1 1 1 1 1 1 1 1 
1 1 1 1 1 1 1 1 1 
1 1 1 1 1 1 1 1 1 
1 1 1 1 1 1 1 1 1 
1 1 1 1 1 1 1 1 1 
1 1 1 1 1 1 1 1 1 
1 1 1 1 1 1 1 1 1 
1 1 1 1 1 1 1 1 1 
1 1 1 1 1 1 1 1 1 
1 1 1 1 1 1 1 1 1 
1 1 1 1 1 1 1 1 1 
1 1 1 1 1 1 1 1 1 
1 1 1 1 1 1 1 1 1 
1 1 1 1 1 1 1 1 1 
1 1 1 1 1 1 1 1 1 
1 1 1 1 1 1 1 1 1 
1 1 1 1 1 1 1 1 1 
1 1 1 1 1 1 1 1 1 
1 1 1 1 1 1 1 1 1 
1 1 1 1 1 1 1 1 1 
1 1 1 1 1 1 1 1 1 
1 1 1 1 1 1 1 1 1 
1 1 1 1 1 1 1 1 1 
1 1 1 1 1 1 1 1 1 
1 1 1 1 1 1 1 1 1 
1 1 1 1 1 1 1 1 1 
1 1 1 1 1 1 1 1 1 
1 1 1 1 1 1 1 1 1 
1 1 1 1 1 1 1 1 1 
1 1 1 1 1 1 1 1 1 
1 1 1 1 1 1 1 1 1 
1 1 1 1 1 1 1 1 1 
1 1 1 1 1 1 1 1 1 
1 1 1 1 1 1 1 1 1 
1 1 1 1 1 1 1 1 1 
1 1 1 1 1 1 1 1 1 
1 1 1 1 1 1 1 1 1 
1 1 1 1 1 1 1 1 1 
1 1 1 1 1 1 1 1 1 
1 1 1 1 1 1 1 1 1 
1 1 1 1 1 1 1 1 1 
1 1 1 1 1 1 1 1 1 
1 1 1 1 1 1 1 1 1 
1 1 1 1 1 1 1 1 1 
1 1 1 1 1 1 1 1 1 
1 1 1 1 1 1 1 1 1 
1 1 1 1 1 1 1 1 1 
1 1 1 1 1 1 1 1 1 
1 1 1 1 1 1 1 1 1 
1 1 1 1 1 1 1 1 1 
1 1 1 1 1 1 1 1 1 
1 1 1 1 1 1 1 1 1 
1 1 1 1 1 1 1 1 1 
1 1 1 1 1 1 1 1 1 
1 1 1 1 1 1 1 1 1 
1 1 1 1 1 1 1 1 1 
1 1 1 1 1 1 1 1 1 
1 1 1 1 1 1 1 1 1 
1 1 1 1 1 1 1 1 1 
1 1 1 1 1 1 1 1 1 
1 1 1 1 1 1 1 1 1 
1 1 1 1 1 1 1 1 1 
1 1 1 1 1 1 1 1 1 
1 1 1 1 1 1 1 1 1 
1 1 1 1 1 1 1 1 1 
1 1 1 1 1 1 1 1 1 
1 1 1 1 1 1 1 1 1 
1 1 1 1 1 1 1 1 1 
1 1 1 1 1 1 1 1 1 
1 1 1 1 1 1 1 1 1 
1 1 1 1 1 1 1 1 1 
1 1 1 1 1 1 1 1 1 
1 1 1 1 1 1 1 1 1 
1 1 1 1 1 1 1 1 1 
1 1 1 1 1 1 1 1 1 
1 1 1 1 1 1 1 1 1 
1 1 1 1 1 1 1 1 1 
1 1 1 1 1 1 1 1 1 
1 1 1 1 1 1 1 1 1 
1 1 1 1 1 1 1 1 1 
1 1 1 1 1 1 1 1 1 
1 1 1 1 1 1 1 1 1 
1 1 1 1 1 1 1 1 1 
1 1 1 1 1 1 1 1 1 
1 1 1 1 1 1 1 1 1 
1 1 1 1 1 1 1 1 1 
1 1 1 1 1 1 1 1 1 
1 1 1 1 1 1 1 1 1 
1 1 1 1 1 1 1 1 1 
1 1 1 1 1 1 1 1 1 
1 1 1 1 1 1 1 1 1 
1 1 1 1 1 1 1 1 1 
1 1 1 1 1 1 1 1 1 
1 1 1 1 1 1 1 1 1 
1 1 1 1 1 1 1 1 1 
1 1 1 1 1 1 1 1 1 
1 1 1 1 1 1 1 1 1 
1 1 1 1 1 1 1 1 1 
1 1 1 1 1 1 1 1 1 
1 1 1 1 1 1 1 1 1 
1 1 1 1 1 1 1 1 1 
1 1 1 1 1 1 1 1 1 
1 1 1 1 1 1 1 1 1 
1 1 1 1 1 1 1 1 1 
1 1 1 1 1 1 1 1 1 
1 1 1 1 1 1 1 1 1 
1 1 1 1 1 1 1 1 1 
1 1 1 1 1 1 1 1 1 
1 1 1 1 1 1 1 1 1 
1 1 1 1 1 1 1 1 1 
1 1 1 1 1 1 1 1 1 
1 1 1 1 1 1 1 1 1 
1 1 1 1 1 1 1 1 1 
1 1 1 1 1 1 1 1 1 
1 1 1 1 1 1 1 1 1 
1 1 1 1 1 1 1 1 1 
1 1 1 1 1 1 1 1 1 
1 1 1 1 1 1 1 1 1 
1 1 1 1 1 1 1 1 1 
1 1 1 1 1 1 1 1 1 
1 1 1 1 1 1 1 1 1 
1 1 1 1 1 1 1 1 1 
1 1 1 1 1 1 1 1 1 
1 1 1 1 1 1 1 1 1 
1 1 1 1 1 1 1 1 1 
1 1 1 1 1 1 1 1 1 
1 1 1 1 1 1 1 1 1 
1 1 1 1 1 1 1 1 1 
1 1 1 1 1 1 1 1 1 
1 1 1 1 1 1 1 1 1 
1 1 1 1 1 1 1 1 1 
1 1 1 1 1 1 1 1 1 
1 1 1 1 1 1 1 1 1 
1 1 1 1 1 1 1 1 1 
1 1 1 1 1 1 1 1 1 
1 1 1 1 1 1 1 1 1 
1 1 1 1 1 1 1 1 1 
1 1 1 1 1 1 1 1 1 
1 1 1 1 1 1 1 1 1 
1 1 1 1 1 1 1 1 1 
1 1 1 1 1 1 1 1 1 
1 1 1 1 1 1 1 1 1 
1 1 1 1 1 1 1 1 1 
1 1 1 1 1 1 1 1 1 
1 1 1 1 1 1 1 1 1 
1 1 1 1 1 1 1 1 1 
1 1 1 1 1 1 1 1 1 
1 1 1 1 1 1 1 1 1 
1 1 1 1 1 1 1 1 1 
1 1 1 1 1 1 1 1 1 
1 1 1 1 1 1 1 1 1 
1 1 1 1 1 1 1 1 1 
1 1 1 1 1 1 1 1 1 
1 1 1 1 1 1 1 1 1 
1 1 1 1 1 1 1 1 1 
1 1 1 1 1 1 1 1 1 
1 1 1 1 1 1 1 1 1 
1 1 1 1 1 1 1 1 1 
1 1 1 1 1 1 1 1 1 
1 1 1 1 1 1 1 1 1 
1 1 1 1 1 1 1 1 1 
1 1 1 1 1 1 1 1 1 
1 1 1 1 1 1 1 1 1 
1 1 1 1 1 1 1 1 1 
1 1 1 1 1 1 1 1 1 
1 1 1 1 1 1 1 1 1 
1 1 1 1 1 1 1 1 1 
1 1 1 1 1 1 1 1 1 
1 1 1 1 1 1 1 1 1 
1 1 1 1 1 1 1 1 1 
1 1 1 1 1 1 1 1 1 
1 1 1 1 1 1 1 1 1 
1 1 1 1 1 1 1 1 1 
1 1 1 1 1 1 1 1 1 
1 1 1 1 1 1 1 1 1 
1 1 1 1 1 1 1 1 1 
1 1 1 1 1 1 1 1 1 
1 1 1 1 1 1 1 1 1 
1 1 1 1 1 1 1 1 1 
1 1 1 1 1 1 1 1 1 
1 1 1 1 1 1 1 1 1 
1 1 1 1 1 1 1 1 1 
1 1 1 1 1 1 1 1 1 
1 1 1 1 1 1 1 1 1 
1 1 1 1 1 1 1 1 1 
1 1 1 1 1 1 1 1 1 
1 1 1 1 1 1 1 1 1 
1 1 1 1 1 1 1 1 1 
1 1 1 1 1 1 1 1 1 
1 1 1 1 1 1 1 1 1 
1 1 1 1 1 1 1 1 1 
1 1 1 1 1 1 1 1 1 
1 1 1 1 1 1 1 1 1 
1 1 1 1 1 1 1 1 1 
1 1 1 1 1 1 1 1 1 
1 1 1 1 1 1 1 1 1 
1 1 1 1 1 1 1 1 1 
1 1 1 1 1 1 1 1 1 
1 1 1 1 1 1 1 1 1 
1 1 1 1 1 1 1 1 1 
1 1 1 1 1 1 1 1 1 
1 1 1 1 1 1 1 1 1 
1 1 1 1 1 1 1 1 1 
1 1 1 1 1 1 1 1 1 
1 1 1 1 1 1 1 1 1 
1 1 1 1 1 1 1 1 1 
1 1 1 1 1 1 1 1 1 
1 1 1 1 1 1 1 1 1 
1 1 1 1 1 1 1 1 1 
1 1 1 1 1 1 1 1 1 
1 1 1 1 1 1 1 1 1 
1 1 1 1 1 1 1 1 1 
1 1 1 1 1 1 1 1 1 
1 1 1 1 1 1 1 1 1 
1 1 1 1 1 1 1 1 1 
1 1 1 1 1 1 1 1 1 
1 1 1 1 1 1 1 1 1 
1 1 1 1 1 1 1 1 1 
1 1 1 1 1 1 1 1 1 
1 1 1 1 1 1 1 1 1 
1 1 1 1 1 1 1 1 1 
1 1 1 1 1 1 1 1 1 
1 1 1 1 1 1 1 1 1 
1 1 1 1 1 1 1 1 1 
1 1 1 1 1 1 1 1 1 
1 1 1 1 1 1 1 1 1 
1 1 1 1 1 1 1 1 1 
1 1 1 1 1 1 1 1 1 
1 1 1 1 1 1 1 1 1 
1 1 1 1 1 1 1 1 1 
1 1 1 1 1 1 1 1 1 
1 1 1 1 1 1 1 1 1 
1 1 1 1 1 1 1 1 1 
1 1 1 1 1 1 1 1 1 
1 1 1 1 1 1 1 1 1 
1 1 1 1 1 1 1 1 1 
1 1 1 1 1 1 1 1 1 
1 1 1 1 1 1 1 1 1 
1 1 1 1 1 1 1 1 1 
1 1 1 1 1 1 1 1 1 
1 1 1 1 1 1 1 1 1 
1 1 1 1 1 1 1 1 1 
1 1 1 1 1 1 1 1 1 
1 1 1 1 1 1 1 1 1 
1 1 1 1 1 1 1 1 1 
1 1 1 1 1 1 1 1 1 
1 1 1 1 1 1 1 1 1 
1 1 1 1 1 1 1 1 1 
1 1 1 1 1 1 1 1 1 
1 1 1 1 1 1 1 1 1 
1 1 1 1 1 1 1 1 1 
1 1 1 1 1 1 1 1 1 
1 1 1 1 1 1 1 1 1 
1 1 1 1 1 1 1 1 1 
1 1 1 1 1 1 1 1 1 
1 1 1 1 1 1 1 1 1 
1 1 1 1 1 1 1 1 1 
1 1 1 1 1 1 1 1 1 
1 1 1 1 1 1 1 1 1 
1 1 1 1 1 1 1 1 1 
1 1 1 1 1 1 1 1 1 
1 1 1 1 1 1 1 1 1 
1 1 1 1 1 1 1 1 1 
1 1 1 1 1 1 1 1 1 
1 1 1 1 1 1 1 1 1 
1 1 1 1 1 1 1 1 1 
1 1 1 1 1 1 1 1 1 
1 1 1 1 1 1 1 1 1 
1 1 1 1 1 1 1 1 1 
1 1 1 1 1 1 1 1 1 
1 1 1 1 1 1 1 1 1 
1 1 1 1 1 1 1 1 1 
1 1 1 1 1 1 1 1 1 
1 1 1 1 1 1 1 1 1 
1 1 1 1 1 1 1 1 1 
1 1 1 1 1 1 1 1 1 
1 1 1 1 1 1 1 1 1 
1 1 1 1 1 1 1 1 1 
1 1 1 1 1 1 1 1 1 
1 1 1 1 1 1 1 1 1 
1 1 1 1 1 1 1 1 1 
1 1 1 1 1 1 1 1 1 
1 1 1 1 1 1 1 1 1 
1 1 1 1 1 1 1 1 1 
1 1 1 1 1 1 1 1 1 
1 1 1 1 1 1 1 1 1 
1 1 1 1 1 1 1 1 1 
1 1 1 1 1 1 1 1 1 
1 1 1 1 1 1 1 1 1 
1 1 1 1 1 1 1 1 1 
1 1 1 1 1 1 1 1 1 
1 1 1 1 1 1 1 1 1 
1 1 1 1 1 1 1 1 1 
1 1 1 1 1 1 1 1 1 
1 1 1 1 1 1 1 1 1 
1 1 1 1 1 
NORMALS normals float
-0.162221 -0.162221 -0.973329 -0.162221 -0.973329 -0.162221 -0.57735 -0.57735 -0.57735 
0.162221 -0.162221 -0.973329 0.162221 -0.973329 -0.162221 0.973329 -0.162221 -0.162221 
-0.162221 -0.162221 -0.973329 -0.57735 -0.57735 -0.57735 -0.57735 -0.57735 -0.57735 
0 0 -1 0.164399 0 -0.986394 0.762001 -0.635001 -0.127 
-0.162221 -0.162221 -0.973329 -0.57735 -0.57735 -0.57735 -0.57735 -0.57735 -0.57735 
0 0 -1 0 0 -1 0 0 -1 
0.635001 -0.762001 -0.127 0 -0.164399 -0.986394 0.162221 -0.162221 -0.973329 
0.162221 -0.973329 -0.162221 0.973329 -0.162221 -0.162221 -0.164399 0 -0.986394 
-0.609208 -0.507673 -0.609208 -0.986394 0 -0.164399 0 0 -1 
0 0 -1 0 0 -1 0 0 -1 
0 0 -1 0.164399 0 -0.986394 0.986394 0 -0.164399 
-0.762001 0.635001 -0.127 -0.762001 0.635001 -0.127 -0.164399 0 -0.986394 
0 0 -1 0 0 -1 0 0 -1 
0 0 -1 0.164399 0 -0.986394 0.986394 0 -0.164399 
-0.164399 0 -0.986394 -0.986394 0 -0.164399 0 0 -1 
0 0 -1 0 0 -1 0 0 -1 
0.164399 0 -0.986394 0.762001 -0.635001 -0.127 -0.164399 0 -0.986394 
-0.986394 0 -0.164399 0 0 -1 0 0 -1 
0 0 -1 0 0 -1 0 0 -1 
0.635001 -0.762001 -0.127 0 -0.164399 -0.986394 0.162221 -0.162221 -0.973329 
0.162221 -0.973329 -0.162221 0.973329 -0.162221 -0.162221 -0.164399 0 -0.986394 
-0.986394 0 -0.164399 0 0 -1 0 0 -1 
0 0 -1 0 0 -1 0 0 -1 
0 0 -1 0.164399 0 -0.986394 0.762001 -0.635001 -0.127 
-0.164399 0 -0.986394 -0.986394 0 -0.164399 0 0 -1 
0 0 -1 0 0 -1 0 0 -1 
0 0 -1 0 0 -1 0 0 -1 
0.635001 -0.762001 -0.127 0 -0.164399 -0.986394 0.162221 -0.162221 -0.973329 
0.162221 -0.973329 -0.162221 0.973329 -0.162221 -0.162221 -0.164399 0 -0.986394 
-0.986394 0 -0.164399 0 0 -1 0 0 -1 
0 0 -1 0 0 -1 0 0 -1 
0 0 -1 0 0 -1 0 0 -1 
0.164399 0 -0.986394 0.762001 -0.635001 -0.127 -0.164399 0 -0.986394 
-0.986394 0 -0.164399 0 0 -1 0 0 -1 
0 0 -1 0 0 -1 0 0 -1 
0 0 -1 0 0 -1 0 0 -1 
0 0 -1 0.635001 -0.762001 -0.127 0 -0.164399 -0.986394 
0.162221 -0.162221 -0.973329 0.162221 -0.973329 -0.162221 0.973329 -0.162221 -0.162221 
-0.164399 0 -0.986394 -0.986394 0 -0.164399 0 0 -1 
0 0 -1 0 0 -1 0 0 -1 
0 0 -1 0 0 -1 0 0 -1 
0 0 -1 0 0 -1 0 0 -1 
0.164399 0 -0.986394 0.986394 0 -0.164399 -0.164399 0 -0.986394 
-0.986394 0 -0.164399 0 0 -1 0 0 -1 
0 0 -1 0 0 -1 0 0 -1 
0 0 -1 0 0 -1 0 0 -1 
0 0 -1 0 0 -1 0.164399 0 -0.986394 
0.986394 0 -0.164399 -0.164399 0 -0.986394 -0.986394 0 -0.164399 
0 0 -1 0 0 -1 0 0 -1 
0 0 -1 0 0 -1 0 0 -1 
0 0 -1 0 0 -1 0 0 -1 
0 0 -1 0.164399 0 -0.986394 0.986394 0 -0.164399 
-0.164399 0 -0.986394 -0.986394 0 -0.164399 0 0 -1 
0 0 -1 0 0 -1 0 0 -1 
0 0 -1 0 0 -1 0 0 -1 
0 0 -1 0 0 -1 0 0 -1 
0.164399 0 -0.986394 0.986394 0 -0.164399 -0.164399 0 -0.986394 
-0.986394 0 -0.164399 0 0 -1 0 0 -1 
0 0 -1 0 0 -1 0 0 -1 
0 0 -1 0 0 -1 0 0 -1 
0 0 -1 0 0 -1 0.164399 0 -0.986394 
0.986394 0 -0.164399 -0.164399 0 -0.986394 -0.986394 0 -0.164399 
0 0 -1 0 0 -1 0 0 -1 
0 0 -1 0 0 -1 0 0 -1 
0 0 -1 0 0 -1 0 0 -1 
0 0 -1 0.162221 0.162221 -0.973329 0.973329 0.162221 -0.162221 
-0.164399 0 -0.986394 -0.986394 0 -0.164399 0 0 -1 
0 0 -1 0 0 -1 0 0 -1 
0 0 -1 0 0 -1 0 0 -1 
0 0 -1 0 0 -1 0.162221 0.162221 -0.973329 
0.57735 0.57735 -0.57735 0.57735 0.57735 -0.57735 -0.164399 0 -0.986394 
-0.986394 0 -0.164399 0 0 -1 0 0 -1 
0 0 -1 0 0 -1 0 0 -1 
0 0 -1 0 0 -1 0 0 -1 
0.164399 0 -0.986394 0.762001 0.635001 -0.127 0.702247 0.702247 -0.117041 
-0.164399 0 -0.986394 -0.986394 0 -0.164399 0 0 -1 
0 0 -1 0 0 -1 0 0 -1 
0 0 -1 0 0 -1 0 0 -1 
0 0 -1 0.164399 0 -0.986394 0.986394 0 -0.164399 
-0.164399 0 -0.986394 -0.986394 0 -0.164399 0 0 -1 
0 0 -1 0 0 -1 0 0 -1 
0 0 -1 0 0 -1 0 0 -1 
0 0 -1 0.164399 0 -0.986394 0.986394 0 -0.164399 
-0.164399 0 -0.986394 -0.986394 0 -0.164399 0 0 -1 
0 0 -1 0 0 -1 0 0 -1 
0 0 -1 0 0 -1 0 0 -1 
0 0 -1 0.164399 0 -0.986394 0.986394 0 -0.164399 
-0.164399 0 -0.986394 -0.986394 0 -0.164399 0 0 -1 
0 0 -1 0 0 -1 0 0 -1 
0 0 -1 0 0 -1 0 0 -1 
0 0 -1 0.162221 0.162221 -0.973329 0.973329 0.162221 -0.162221 
-0.164399 0 -0.986394 -0.986394 0 -0.164399 0 0 -1 
0 0 -1 0 0 -1 0 0 -1 
0 0 -1 0 0 -1 0 0 -1 
0.162221 0.162221 -0.973329 0.57735 0.57735 -0.57735 0.57735 0.57735 -0.57735 
-0.164399 0 -0.986394 -0.762001 -0.635001 -0.127 0 0 -1 
0 0 -1 0 0 -1 0 0 -1 
0 0 -1 0 0 -1 0.164399 0 -0.986394 
0.762001 0.635001 -0.127 0.702247 0.702247 -0.117041 -0.162221 -0.162221 -0.973329 
-0.702247 -0.702247 -0.117041 -0.702247 -0.702247 -0.117041 0 0 -1 
0 0 -1 0 0 -1 0 0 -1 
0 0 -1 0 0 -1 0 0 -1 
0.164399 0 -0.986394 0.986394 0 -0.164399 -0.162221 -0.162221 -0.973329 
-0.702247 -0.702247 -0.117041 -0.973329 -0.162221 -0.162221 0 0 -1 
0 0 -1 0 0 -1 0 0 -1 
0 0 -1 0 0 -1 0 0 -1 
0 0 -1 0.164399 0 -0.986394 0.986394 0 -0.164399 
-0.164399 0 -0.986394 -0.986394 0 -0.164399 0 0 -1 
0 0 -1 0 0 -1 0 0 -1 
0 0 -1 0 0 -1 0 0 -1 
0 0 -1 0.164399 0 -0.986394 0.986394 0 -0.164399 
-0.164399 0 -0.986394 -0.986394 0 -0.164399 0 0 -1 
0 0 -1 0 0 -1 0 0 -1 
0 0 -1 0 0 -1 0 0 -1 
0 0 -1 0.162221 0.162221 -0.973329 0.973329 0.162221 -0.162221 
-0.164399 0 -0.986394 -0.986394 0 -0.164399 0 0 -1 
0 0 -1 0 0 -1 0 0 -1 
0 0 -1 0 0 -1 0 0 -1 
0.162221 0.162221 -0.973329 0.702247 0.702247 -0.117041 0.702247 0.702247 -0.117041 
-0.164399 0 -0.986394 -0.762001 -0.635001 -0.127 0 0 -1 
0 0 -1 0 0 -1 0 0 -1 
0 0 -1 0 0 -1 0.162221 0.162221 -0.973329 
0.702247 0.702247 -0.117041 0.702247 0.702247 -0.117041 -0.164399 0 -0.986394 
-0.762001 -0.635001 -0.127 -0.986394 0 -0.164399 0 0 -1 
0 0 -1 0 0 -1 0 0 -1 
0 0 -1 0 0 -1 0.162221 0.162221 -0.973329 
0.57735 0.57735 -0.57735 0.57735 0.57735 -0.57735 -0.609208 0.507673 -0.609208 
-0.609208 0.507673 -0.609208 -0.164399 0 -0.986394 0 0 -1 
0 0 -1 0 0 -1 0 0 -1 
0.164399 0 -0.986394 0.762001 0.635001 -0.127 0.702247 0.702247 -0.117041 
-0.164399 0 -0.986394 -0.707107 0 -0.707107 0 0 -1 
0 0 -1 0 0 -1 0 0 -1 
0.164399 0 -0.986394 0.986394 0 -0.164399 -0.164399 0 -0.986394 
-0.707107 0 -0.707107 0 0 -1 0 0 -1 
0 0 -1 0 0 -1 0.164399 0 -0.986394 
0.986394 0 -0.164399 -0.164399 0 -0.986394 -0.707107 0 -0.707107 
0 0 -1 0 0 -1 0 0 -1 
0 0 -1 0.164399 0 -0.986394 0.986394 0 -0.164399 
-0.164399 0 -0.986394 -0.707107 0 -0.707107 0 0 -1 
0 0 -1 0 0 -1 0 0 -1 
0.162221 0.162221 -0.973329 0.973329 0.162221 -0.162221 -0.164399 0 -0.986394 
-0.707107 0 -0.707107 0 0 -1 0 0 -1 
0 0 -1 0.162221 0.162221 -0.973329 0.702247 0.702247 -0.117041 
0.702247 0.702247 -0.117041 -0.164399 0 -0.986394 -0.707107 0 -0.707107 
0 0 -1 0 0 -1 0.162221 0.162221 -0.973329 
0.702247 0.702247 -0.117041 0.702247 0.702247 -0.117041 -0.162221 0.162221 -0.973329 
-0.702247 0.117041 -0.702247 0 0.164399 -0.986394 0.162221 0.162221 -0.973329 
0.57735 0.57735 -0.57735 0.57735 0.57735 -0.57735 -0.162221 0.973329 -0.162221 
0 0.986394 -0.164399 0.162221 0.973329 -0.162221 -0.57735 -0.57735 -0.57735 
-0.162221 -0.973329 -0.162221 -0.57735 -0.57735 -0.57735 0 -1 0 
0.164399 -0.986394 0 0.986394 -0.164399 0 -0.57735 -0.57735 -0.57735 
-0.57735 -0.57735 -0.57735 -0.702247 -0.702247 -0.117041 0.768221 -0.640184 0 
-0.609208 -0.609208 -0.507673 -0.707107 -0.707107 0 -0.986394 -0.164399 0 
0.640184 -0.768221 0 0.164399 -0.986394 0 0.986394 -0.164399 0 
-0.973329 0.162221 0.162221 1 0 0 -0.702247 0.702247 0.117041 
-0.768221 0.640184 0 1 0 0 -1 0 0 
0.768221 -0.640184 0 -1 0 0 0.640184 -0.768221 0 
0.164399 -0.986394 0 0.986394 -0.164399 0 -1 0 0 
0.768221 -0.640184 0 -1 0 0 0.640184 -0.768221 0 
0.164399 -0.986394 0 0.986394 -0.164399 0 -1 0 0 
0.768221 -0.640184 0 -1 0 0 0.640184 -0.768221 0 
0.164399 -0.986394 0 0.986394 -0.164399 0 -1 0 0 
1 0 0 -1 0 0 0.768221 0 -0.640184 
-1 0 0 0.768221 0 -0.640184 -1 0 0 
0.768221 0 -0.640184 -1 0 0 0.768221 0 -0.640184 
-1 0 0 0.768221 0 -0.640184 -1 0 0 
0.57735 0.57735 -0.57735 0.702247 0.117041 -0.702247 -1 0 0 
0.646997 0.539164 -0.539164 0.539164 0.646997 -0.539164 0.117041 0.702247 -0.702247 
-1 0 0 0.768221 0 -0.640184 -1 0 0 
0.768221 0 -0.640184 -1 0 0 0.768221 0 -0.640184 
-1 0 0 0.768221 0 -0.640184 -1 0 0 
0.57735 0.57735 -0.57735 0.702247 0.117041 -0.702247 -0.768221 -0.640184 0 
0.646997 0.539164 -0.539164 0.539164 0.646997 -0.539164 0.117041 0.702247 -0.702247 