# vtk DataFile Version 3.0
vtk output
ASCII
DATASET POLYDATA
POINTS 7054 float
141 47 68.0192 141 46.0192 69 140.019 47 69 
141.981 47 69 141 47.9808 69 117 24 69.0192 
117 23.0192 70 116.019 24 70 118 24 69.0192 
118 23.0192 70 119 24 69.0192 119 23.0192 70 
120 24 69.0192 120 23.0192 70 120.981 24 70 
117 25 69.0192 116.019 25 70 118 25 69.0192 
119 25 69.0192 120 25 69.0192 120.981 25 70 
117 25.9808 70 118 25.9808 70 119 25.9808 70 
120 25.9808 70 121 25.0192 70 120.019 26 70 
121 26 69.0192 122 26 69.0192 122 25.0192 70 
122.981 26 70 121 27 69.0192 120.019 27 70 
121.981 27 70 122 26.9808 70 121 27.9808 70 
125 28 69.0192 125 27.0192 70 124.019 28 70 
126 28 69.0192 126 27.0192 70 126.981 28 70 
125 29 69.0192 124.019 29 70 125.981 29 70 
126 28.9808 70 125 29.9808 70 133 34 69.0192 
133 33.0192 70 132.019 34 70 134 34 69.0192 
134 33.0192 70 134.981 34 70 133 35 69.0192 
132.019 35 70 133.981 35 70 134 34.9808 70 
133 35.9808 70 117 38 69.0192 117 37.0192 70 
116.019 38 70 118 38 69.0192 118 37.0192 70 
118.981 38 70 117 39 69.0192 116.019 39 70 
117.981 39 70 118 38.9808 70 117 39.9808 70 
139 44 69.0192 139 43.0192 70 138.019 44 70 
140 44 69.0192 140 43.0192 70 140.981 44 70 
139 45 69.0192 138.019 45 70 140 45 69.0192 
140.981 45 70 123 46 69.0192 123 45.0192 70 
122.019 46 70 124 46 69.0192 124 45.0192 70 
124.981 46 70 139 45.9808 70 140 45.9808 70 
141 45.0192 70 140.019 46 70 141 46 69.0192 
142 46 69.0192 142 45.0192 70 142.981 46 70 
123 47 69.0192 122.019 47 70 123.981 47 70 
124 46.9808 70 140.019 47 70 142 47 69.0192 
142.981 47 70 123 47.9808 70 141 48 69.0192 
140.019 48 70 142 48 69.0192 142.981 48 70 
141 49 69.0192 140.019 49 70 142 49 69.0192 
142.981 49 70 141 49.9808 70 142 49.9808 70 
143 49.0192 70 142.019 50 70 143 50 69.0192 
144 50 69.0192 144 49.0192 70 144.981 50 70 
143 51 69.0192 142.019 51 70 143.981 51 70 
144 50.9808 70 137 52 69.0192 137 51.0192 70 
136.019 52 70 138 52 69.0192 138 51.0192 70 
138.981 52 70 143 51.9808 70 137 53 69.0192 
136.019 53 70 137.981 53 70 138 52.9808 70 
137 53.9808 70 116 24 70.0192 116 23.0192 71 
115.019 24 71 117 23.0192 71 118 23.0192 71 
119 23.0192 71 120 23.0192 71 120.981 24 71 
116 24.9808 71 116.019 25 71 120.981 25 71 
117 25.9808 71 118 25.9808 71 119 25.9808 71 
120 26 70.0192 119.019 26 71 121 25.0192 71 
122 25.0192 71 122.981 26 71 120 27 70.0192 
119.019 27 71 122 27 70.0192 123 26.0192 71 
123 27 70.0192 124 27 70.0192 124 26.0192 71 
124.981 27 71 120 27.9808 71 121 27.9808 71 
122 27.9808 71 123 27.9808 71 123.019 28 71 
124 28 70.0192 125 27.0192 71 126 27.0192 71 
126.981 28 71 124 29 70.0192 123.019 29 71 
126 29 70.0192 126.981 29 71 124 29.9808 71 
125 29.9808 71 126 29.9808 71 128 30 70.0192 
128 29.0192 71 127.019 30 71 128.981 30 71 
128 31 70.0192 127.019 31 71 129 30.0192 71 
129 31 70.0192 129.981 31 71 128 31.9808 71 
129 31.9808 71 132 34 70.0192 132 33.0192 71 
131.019 34 71 133 33.0192 71 134 33.0192 71 
134.981 34 71 132 35 70.0192 131.019 35 71 
133.981 35 71 134 34.9808 71 132 35.9808 71 
133 35.9808 71 115 37 70.0192 115 36.0192 71 
114.019 37 71 116 37 70.0192 116 36.0192 71 
117 37 70.0192 117 36.0192 71 118 37 70.0192 
118 36.0192 71 118.981 37 71 115 37.9808 71 
115.019 38 71 116 38 70.0192 118.981 38 71 
116 38.9808 71 116.019 39 71 118 39 70.0192 
118.981 39 71 117 39.9808 71 118 39.9808 71 
138 44 70.0192 138 43.0192 71 137.019 44 71 
139 43.0192 71 140 43.0192 71 140.981 44 71 
123 45 70.0192 123 44.0192 71 122.019 45 71 
124 45 70.0192 124 44.0192 71 124.981 45 71 
138 45 70.0192 137.019 45 71 140.981 45 71 
122.019 46 71 124.981 46 71 138 45.9808 71 
139 45.9808 71 140 46 70.0192 139.019 46 71 
141 45.0192 71 142 45.0192 71 142.981 46 71 
122.019 47 71 124 47 70.0192 124.981 47 71 
140 47 70.0192 139.019 47 71 142.981 47 71 
123 47.9808 71 124 47.9808 71 140 48 70.0192 
139.019 48 71 142.981 48 71 140 49 70.0192 
139.019 49 71 142.981 49 71 140 49.9808 71 
141 49.9808 71 142 50 70.0192 141.019 50 71 
143 49.0192 71 144 49.0192 71 144.981 50 71 
136 51 70.0192 136 50.0192 71 135.019 51 71 
137 51 70.0192 137 50.0192 71 138 51 70.0192 
138 50.0192 71 138.981 51 71 142 50.9808 71 
142.019 51 71 143.981 51 71 144 50.9808 71 
136 52 70.0192 135.019 52 71 137.981 52 71 
138 52 70.9808 138 51.9808 71 143 51.9808 71 
129 53 70.0192 129 52.0192 71 128.019 53 71 
130 53 70.0192 130 52.0192 71 130.981 53 71 
136 52.9808 71 137 52.9808 71 137 53 70.9808 
129 53.9808 71 130 53.9808 71 116 24 71.9808 
116.019 24 72 117 23.0192 72 118 23.0192 72 
119 23.0192 72 120 23.0192 72 120.981 24 72 
116.019 25 72 120.981 25 72 117 26 71.0192 
116.019 26 72 118 26 71.0192 119 26 71.0192 
121 25.0192 72 122 25.0192 72 123 26 71.0192 
123 25.0192 72 124 26 71.0192 124 25.0192 72 
124.981 26 72 117 27 71.0192 116.019 27 72 
118 27 71.0192 119 27 71.0192 124.981 27 72 
117 28 71.0192 116.019 28 72 118 28 71.0192 
119 28 71.0192 120 28 71.0192 121 28 71.0192 
122 28 71.0192 123 28 71.0192 125 27.0192 72 
126 27.0192 72 126.981 28 72 117 29 71.0192 
116.019 29 72 118 29 71.0192 119 29 71.0192 
120 29 71.0192 121 29 71.0192 122 29 71.0192 
123 29 71.0192 126.981 29 72 117 30 71.0192 
116.019 30 72 118 30 71.0192 119 30 71.0192 
120 30 71.0192 121 30 71.0192 122 30 71.0192 
123 30 71.0192 124 30 71.0192 125 30 71.0192 
126 30 71.0192 127 29.0192 72 127 30 71.0192 
128 29.0192 72 129 30 71.0192 129 29.0192 72 
130 30 71.0192 130 29.0192 72 130.981 30 72 
117 31 71.0192 116.019 31 72 118 31 71.0192 
119 31 71.0192 120 31 71.0192 121 31 71.0192 
122 31 71.0192 123 31 71.0192 124 31 71.0192 
125 31 71.0192 126 31 71.0192 127 31 71.0192 
130 31 71.0192 130.981 31 72 117 32 71.0192 
116.019 32 72 118 32 71.0192 119 32 71.0192 
120 32 71.0192 121 32 71.0192 122 32 71.0192 
123 32 71.0192 124 32 71.0192 125 32 71.0192 
126 32 71.0192 127 32 71.0192 128 32 71.0192 
129 32 71.0192 130 32 71.0192 130.981 32 72 
117 33 71.0192 116.019 33 72 118 33 71.0192 
119 33 71.0192 120 33 71.0192 121 33 71.0192 
122 33 71.0192 123 33 71.0192 124 33 71.0192 
125 33 71.0192 126 33 71.0192 127 33 71.0192 
128 33 71.0192 129 33 71.0192 130 33 71.0192 
130.981 33 72 117 34 71.0192 116.019 34 72 
118 34 71.0192 119 34 71.0192 120 34 71.0192 
121 34 71.0192 122 34 71.0192 123 34 71.0192 
124 34 71.0192 125 34 71.0192 126 34 71.0192 
127 34 71.0192 128 34 71.0192 129 34 71.0192 
130 34 71.0192 131 33.0192 72 131 34 71.0192 
132 33.0192 72 133 33.0192 72 134 33.0192 72 
134.981 34 72 116 35 71.0192 116 34.0192 72 
115.019 35 72 117 35 71.0192 118 35 71.0192 
119 35 71.0192 120 35 71.0192 121 35 71.0192 
122 35 71.0192 123 35 71.0192 124 35 71.0192 
125 35 71.0192 126 35 71.0192 127 35 71.0192 
128 35 71.0192 129 35 71.0192 130 35 71.0192 
131 35 71.0192 134 35 71.0192 134.981 35 72 
115 36 71.0192 115 35.0192 72 114.019 36 72 
116 36 71.0192 117 36 71.0192 118 36 71.0192 
119 36 71.0192 120 36 71.0192 121 36 71.0192 
122 36 71.0192 123 36 71.0192 124 36 71.0192 
125 36 71.0192 126 36 71.0192 127 36 71.0192 
128 36 71.0192 129 36 71.0192 130 36 71.0192 
131 36 71.0192 132 36 71.0192 133 36 71.0192 
134 36 71.0192 134.981 36 72 114.019 37 72 
119 37 71.0192 120 37 71.0192 121 37 71.0192 
122 37 71.0192 123 37 71.0192 124 37 71.0192 
125 37 71.0192 126 37 71.0192 127 37 71.0192 
128 37 71.0192 129 37 71.0192 130 37 71.0192 
131 37 71.0192 132 37 71.0192 133 37 71.0192 
134 37 71.0192 134.981 37 72 115 38 71.0192 
114.019 38 72 119 38 71.0192 120 38 71.0192 
121 38 71.0192 122 38 71.0192 123 38 71.0192 
124 38 71.0192 125 38 71.0192 126 38 71.0192 
127 38 71.0192 128 38 71.0192 129 38 71.0192 
130 38 71.0192 131 38 71.0192 132 38 71.0192 
133 38 71.0192 134 38 71.0192 134.981 38 72 
115 39 71.0192 114.019 39 72 116 39 71.0192 
119 39 71.0192 120 39 71.0192 121 39 71.0192 
122 39 71.0192 123 39 71.0192 124 39 71.0192 
125 39 71.0192 126 39 71.0192 127 39 71.0192 
128 39 71.0192 129 39 71.0192 130 39 71.0192 
131 39 71.0192 132 39 71.0192 133 39 71.0192 
134 39 71.0192 134.981 39 72 115 39.9808 72 
116 39.9808 72 117 39.9808 72 118 39.9808 72 
119 40 71.0192 118.019 40 72 120 40 71.0192 
121 40 71.0192 122 40 71.0192 123 40 71.0192 
124 40 71.0192 125 40 71.0192 126 40 71.0192 
127 40 71.0192 128 40 71.0192 129 40 71.0192 
130 40 71.0192 131 40 71.0192 132 40 71.0192 
133 40 71.0192 134 40 71.0192 134.981 40 72 
119 41 71.0192 118.019 41 72 120 41 71.0192 
121 41 71.0192 122 41 71.0192 123 41 71.0192 
124 41 71.0192 125 41 71.0192 126 41 71.0192 
127 41 71.0192 128 41 71.0192 129 41 71.0192 
130 41 71.0192 131 41 71.0192 132 41 71.0192 
133 41 71.0192 134 41 71.0192 134.981 41 72 
119 41.9808 72 120 41.9808 72 120.019 42 72 
121 42 71.0192 122 42 71.0192 123 42 71.0192 
124 42 71.0192 125 42 71.0192 126 42 71.0192 
127 42 71.0192 128 42 71.0192 129 42 71.0192 
130 42 71.0192 131 42 71.0192 132 42 71.0192 
133 42 71.0192 134 42 71.0192 135 41.0192 72 
135 42 71.0192 136 42 71.0192 136 41.0192 72 
136.981 42 72 121 43 71.0192 120.019 43 72 
122 43 71.0192 123 43 71.0192 124 43 71.0192 
125 43 71.0192 126 43 71.0192 127 43 71.0192 
128 43 71.0192 129 43 71.0192 130 43 71.0192 
131 43 71.0192 132 43 71.0192 133 43 71.0192 
134 43 71.0192 135 43 71.0192 136 43 71.0192 
136.981 43 72 121 43.9808 72 122 43.9808 72 
122.019 44 72 123 44 71.0192 124 44 71.0192 
125 44 71.0192 126 44 71.0192 127 44 71.0192 
128 44 71.0192 129 44 71.0192 130 44 71.0192 
131 44 71.0192 132 44 71.0192 133 44 71.0192 
134 44 71.0192 135 44 71.0192 136 44 71.0192 
137 43.0192 72 137 44 71.0192 138 43.0192 72 
139 43.0192 72 140 43.0192 72 140.981 44 72 
122.019 45 72 125 45 71.0192 126 45 71.0192 
127 45 71.0192 128 45 71.0192 129 45 71.0192 
130 45 71.0192 131 45 71.0192 132 45 71.0192 
133 45 71.0192 134 45 71.0192 135 45 71.0192 
136 45 71.0192 137 45 71.0192 140.981 45 72 
122.019 46 72 125 46 71.0192 126 46 71.0192 
127 46 71.0192 128 46 71.0192 129 46 71.0192 
130 46 71.0192 131 46 71.0192 132 46 71.0192 
133 46 71.0192 134 46 71.0192 135 46 71.0192 
[...]
POINT_DATA 7054
SCALARS scalars float
LOOKUP_TABLE default
1 1 1 1 1 1 1 1 1 
1 1 1 1 1 1 1 1 1 
1 1 1 1 1 1 1 1 1 
1 1 1 1 1 1 1 1 1 
1 1 1 1 1 1 1 1 1 
1 1 1 1 1 1 1 1 1 
1 1 1 1 1 1 1 1 1 
1 1 1 1 1 1 1 1 1 
1 1 1 1 1 1 1 1 1 
1 1 1 1 1 1 1 1 1 
1 1 1 1 1 1 1 1 1 
1 1 1 1 1 1 1 1 1 
1 1 1 1 1 1 1 1 1 
1 1 1 1 1 1 1 1 1 
1 1 1 1 1 1 1 1 1 
1 1 1 1 1 1 1 1 1 
1 1 1 1 1 1 1 1 1 
1 1 1 1 1 1 1 1 1 
1 1 1 1 1 1 1 1 1 
1 1 1 1 1 1 1 1 1 
1 1 1 1 1 1 1 1 1 
1 1 1 1 1 1 1 1 1 
1 1 1 1 1 1 1 1 1 
1 1 1 1 1 1 1 1 1 
1 1 1 1 1 1 1 1 1 
1 1 1 1 1 1 1 1 1 
1 1 1 1 1 1 1 1 1 
1 1 1 1 1 1 1 1 1 
1 1 1 1 1 1 1 1 1 
1 1 1 1 1 1 1 1 1 
1 1 1 1 1 1 1 1 1 
1 1 1 1 1 1 1 1 1 
1 1 1 1 1 1 1 1 1 
1 1 1 1 1 1 1 1 1 
1 1 1 1 1 1 1 1 1 
1 1 1 1 1 1 1 1 1 
1 1 1 1 1 1 1 1 1 
1 1 1 1 1 1 1 1 1 
1 1 1 1 1 1 1 1 1 
1 1 1 1 1 1 1 1 1 
1 1 1 1 1 1 1 1 1 
1 1 1 1 1 1 1 1 1 
1 1 1 1 1 1 1 1 1 
1 1 1 1 1 1 1 1 1 
1 1 1 1 1 1 1 1 1 
1 1 1 1 1 1 1 1 1 
1 1 1 1 1 1 1 1 1 
1 1 1 1 1 1 1 1 1 
1 1 1 1 1 1 1 1 1 
1 1 1 1 1 1 1 1 1 
1 1 1 1 1 1 1 1 1 
1 1 1 1 1 1 1 1 1 
1 1 1 1 1 1 1 1 1 
1 1 1 1 1 1 1 1 1 
1 1 1 1 1 1 1 1 1 
1 1 1 1 1 1 1 1 1 
1 1 1 1 1 1 1 1 1 
1 1 1 1 1 1 1 1 1 
1 1 1 1 1 1 1 1 1 
1 1 1 1 1 1 1 1 1 
1 1 1 1 1 1 1 1 1 
1 1 1 1 1 1 1 1 1 
1 1 1 1 1 1 1 1 1 
1 1 1 1 1 1 1 1 1 
1 1 1 1 1 1 1 1 1 
1 1 1 1 1 1 1 1 1 
1 1 1 1 1 1 1 1 1 
1 1 1 1 1 1 1 1 1 
1 1 1 1 1 1 1 1 1 
1 1 1 1 1 1 1 1 1 
1 1 1 1 1 1 1 1 1 
1 1 1 1 1 1 1 1 1 
1 1 1 1 1 1 1 1 1 
1 1 1 1 1 1 1 1 1 
1 1 1 1 1 1 1 1 1 
1 1 1 1 1 1 1 1 1 
1 1 1 1 1 1 1 1 1 
1 1 1 1 1 1 1 1 1 
1 1 1 1 1 1 1 1 1 
1 1 1 1 1 1 1 1 1 
1 1 1 1 1 1 1 1 1 
1 1 1 1 1 1 1 1 1 
1 1 1 1 1 1 1 1 1 
1 1 1 1 1 1 1 1 1 
1 1 1 1 1 1 1 1 1 
1 1 1 1 1 1 1 1 1 
1 1 1 1 1 1 1 1 1 
1 1 1 1 1 1 1 1 1 
1 1 1 1 1 1 1 1 1 
1 1 1 1 1 1 1 1 1 
1 1 1 1 1 1 1 1 1 
1 1 1 1 1 1 1 1 1 
1 1 1 1 1 1 1 1 1 
1 1 1 1 1 1 1 1 1 
1 1 1 1 1 1 1 1 1 
1 1 1 1 1 1 1 1 1 
1 1 1 1 1 1 1 1 1 
1 1 1 1 1 1 1 1 1 
1 1 1 1 1 1 1 1 1 
1 1 1 1 1 1 1 1 1 
1 1 1 1 1 1 1 1 1 
1 1 1 1 1 1 1 1 1 
1 1 1 1 1 1 1 1 1 
1 1 1 1 1 1 1 1 1 
1 1 1 1 1 1 1 1 1 
1 1 1 1 1 1 1 1 1 
1 1 1 1 1 1 1 1 1 
1 1 1 1 1 1 1 1 1 
1 1 1 1 1 1 1 1 1 
1 1 1 1 1 1 1 1 1 
1 1 1 1 1 1 1 1 1 
1 1 1 1 1 1 1 1 1 
1 1 1 1 1 1 1 1 1 
1 1 1 1 1 1 1 1 1 
1 1 1 1 1 1 1 1 1 
1 1 1 1 1 1 1 1 1 
1 1 1 1 1 1 1 1 1 
1 1 1 1 1 1 1 1 1 
1 1 1 1 1 1 1 1 1 
1 1 1 1 1 1 1 1 1 
1 1 1 1 1 1 1 1 1 
1 1 1 1 1 1 1 1 1 
1 1 1 1 1 1 1 1 1 
1 1 1 1 1 1 1 1 1 
1 1 1 1 1 1 1 1 1 
1 1 1 1 1 1 1 1 1 
1 1 1 1 1 1 1 1 1 
1 1 1 1 1 1 1 1 1 
1 1 1 1 1 1 1 1 1 
1 1 1 1 1 1 1 1 1 
1 1 1 1 1 1 1 1 1 
1 1 1 1 1 1 1 1 1 
1 1 1 1 1 1 1 1 1 
1 1 1 1 1 1 1 1 1 
1 1 1 1 1 1 1 1 1 
1 1 1 1 1 1 1 1 1 
1 1 1 1 1 1 1 1 1 
1 1 1 1 1 1 1 1 1 
1 1 1 1 1 1 1 1 1 
1 1 1 1 1 1 1 1 1 
1 1 1 1 1 1 1 1 1 
1 1 1 1 1 1 1 1 1 
1 1 1 1 1 1 1 1 1 
1 1 1 1 1 1 1 1 1 
1 1 1 1 1 1 1 1 1 
1 1 1 1 1 1 1 1 1 
1 1 1 1 1 1 1 1 1 
1 1 1 1 1 1 1 1 1 
1 1 1 1 1 1 1 1 1 
1 1 1 1 1 1 1 1 1 
1 1 1 1 1 1 1 1 1 
1 1 1 1 1 1 1 1 1 
1 1 1 1 1 1 1 1 1 
1 1 1 1 1 1 1 1 1 
1 1 1 1 1 1 1 1 1 
1 1 1 1 1 1 1 1 1 
1 1 1 1 1 1 1 1 1 
1 1 1 1 1 1 1 1 1 
1 1 1 1 1 1 1 1 1 
1 1 1 1 1 1 1 1 1 
1 1 1 1 1 1 1 1 1 
1 1 1 1 1 1 1 1 1 
1 1 1 1 1 1 1 1 1 
1 1 1 1 1 1 1 1 1 
1 1 1 1 1 1 1 1 1 
1 1 1 1 1 1 1 1 1 
1 1 1 1 1 1 1 1 1 
1 1 1 1 1 1 1 1 1 
1 1 1 1 1 1 1 1 1 
1 1 1 1 1 1 1 1 1 
1 1 1 1 1 1 1 1 1 
1 1 1 1 1 1 1 1 1 
1 1 1 1 1 1 1 1 1 
1 1 1 1 1 1 1 1 1 
1 1 1 1 1 1 1 1 1 
1 1 1 1 1 1 1 1 1 
1 1 1 1 1 1 1 1 1 
1 1 1 1 1 1 1 1 1 
1 1 1 1 1 1 1 1 1 
1 1 1 1 1 1 1 1 1 
1 1 1 1 1 1 1 1 1 
1 1 1 1 1 1 1 1 1 
1 1 1 1 1 1 1 1 1 
1 1 1 1 1 1 1 1 1 
1 1 1 1 1 1 1 1 1 
1 1 1 1 1 1 1 1 1 
1 1 1 1 1 1 1 1 1 
1 1 1 1 1 1 1 1 1 
1 1 1 1 1 1 1 1 1 
1 1 1 1 1 1 1 1 1 
1 1 1 1 1 1 1 1 1 
1 1 1 1 1 1 1 1 1 
1 1 1 1 1 1 1 1 1 
1 1 1 1 1 1 1 1 1 
1 1 1 1 1 1 1 1 1 
1 1 1 1 1 1 1 1 1 
1 1 1 1 1 1 1 1 1 
1 1 1 1 1 1 1 1 1 
1 1 1 1 1 1 1 1 1 
1 1 1 1 1 1 1 1 1 
1 1 1 1 1 1 1 1 1 
1 1 1 1 1 1 1 1 1 
1 1 1 1 1 1 1 1 1 
1 1 1 1 1 1 1 1 1 
1 1 1 1 1 1 1 1 1 
1 1 1 1 1 1 1 1 1 
1 1 1 1 1 1 1 1 1 
1 1 1 1 1 1 1 1 1 
1 1 1 1 1 1 1 1 1 
1 1 1 1 1 1 1 1 1 
1 1 1 1 1 1 1 1 1 
1 1 1 1 1 1 1 1 1 
1 1 1 1 1 1 1 1 1 
1 1 1 1 1 1 1 1 1 
1 1 1 1 1 1 1 1 1 
1 1 1 1 1 1 1 1 1 
1 1 1 1 1 1 1 1 1 
1 1 1 1 1 1 1 1 1 
1 1 1 1 1 1 1 1 1 
1 1 1 1 1 1 1 1 1 
1 1 1 1 1 1 1 1 1 
1 1 1 1 1 1 1 1 1 
1 1 1 1 1 1 1 1 1 
1 1 1 1 1 1 1 1 1 
1 1 1 1 1 1 1 1 1 
1 1 1 1 1 1 1 1 1 
1 1 1 1 1 1 1 1 1 
1 1 1 1 1 1 1 1 1 
1 1 1 1 1 1 1 1 1 
1 1 1 1 1 1 1 1 1 
1 1 1 1 1 1 1 1 1 
1 1 1 1 1 1 1 1 1 
1 1 1 1 1 1 1 1 1 
1 1 1 1 1 1 1 1 1 
1 1 1 1 1 1 1 1 1 
1 1 1 1 1 1 1 1 1 
1 1 1 1 1 1 1 1 1 
1 1 1 1 1 1 1 1 1 
1 1 1 1 1 1 1 1 1 
1 1 1 1 1 1 1 1 1 
1 1 1 1 1 1 1 1 1 
1 1 1 1 1 1 1 1 1 
1 1 1 1 1 1 1 1 1 
1 1 1 1 1 1 1 1 1 
1 1 1 1 1 1 1 1 1 
1 1 1 1 1 1 1 1 1 
1 1 1 1 1 1 1 1 1 
1 1 1 1 1 1 1 1 1 
1 1 1 1 1 1 1 1 1 
1 1 1 1 1 1 1 1 1 
1 1 1 1 1 1 1 1 1 
1 1 1 1 1 1 1 1 1 
1 1 1 1 1 1 1 1 1 
1 1 1 1 1 1 1 1 1 
1 1 1 1 1 1 1 1 1 
1 1 1 1 1 1 1 1 1 
1 1 1 1 1 1 1 1 1 
1 1 1 1 1 1 1 1 1 
1 1 1 1 1 1 1 1 1 
1 1 1 1 1 1 1 1 1 
1 1 1 1 1 1 1 1 1 
1 1 1 1 1 1 1 1 1 
1 1 1 1 1 1 1 1 1 
1 1 1 1 1 1 1 1 1 
1 1 1 1 1 1 1 1 1 
1 1 1 1 1 1 1 1 1 
1 1 1 1 1 1 1 1 1 
1 1 1 1 1 1 1 1 1 
1 1 1 1 1 1 1 1 1 
1 1 1 1 1 1 1 1 1 
1 1 1 1 1 1 1 1 1 
1 1 1 1 1 1 1 1 1 
1 1 1 1 1 1 1 1 1 
1 1 1 1 1 1 1 1 1 
1 1 1 1 1 1 1 1 1 
1 1 1 1 1 1 1 1 1 
1 1 1 1 1 1 1 1 1 
1 1 1 1 1 1 1 1 1 
1 1 1 1 1 1 1 1 1 
1 1 1 1 1 1 1 1 1 
1 1 1 1 1 1 1 1 1 
1 1 1 1 1 1 1 1 1 
1 1 1 1 1 1 1 1 1 
1 1 1 1 1 1 1 1 1 
1 1 1 1 1 1 1 1 1 
1 1 1 1 1 1 1 1 1 
1 1 1 1 1 1 1 1 1 
1 1 1 1 1 1 1 1 1 
1 1 1 1 1 1 1 1 1 
1 1 1 1 1 1 1 1 1 
1 1 1 1 1 1 1 1 1 
1 1 1 1 1 1 1 1 1 
1 1 1 1 1 1 1 1 1 
1 1 1 1 1 1 1 1 1 
1 1 1 1 1 1 1 1 1 
1 1 1 1 1 1 1 1 1 
1 1 1 1 1 1 1 1 1 
1 1 1 1 1 1 1 1 1 
1 1 1 1 1 1 1 1 1 
1 1 1 1 1 1 1 1 1 
1 1 1 1 1 1 1 1 1 
1 1 1 1 1 1 1 1 1 
1 1 1 1 1 1 1 1 1 
1 1 1 1 1 1 1 1 1 
1 1 1 1 1 1 1 1 1 
1 1 1 1 1 1 1 1 1 
1 1 1 1 1 1 1 1 1 
1 1 1 1 1 1 1 1 1 
1 1 1 1 1 1 1 1 1 
1 1 1 1 1 1 1 1 1 
1 1 1 1 1 1 1 1 1 
1 1 1 1 1 1 1 1 1 
1 1 1 1 1 1 1 1 1 
1 1 1 1 1 1 1 1 1 
1 1 1 1 1 1 1 1 1 
1 1 1 1 1 1 1 1 1 
1 1 1 1 1 1 1 1 1 
1 1 1 1 1 1 1 1 1 
1 1 1 1 1 1 1 1 1 
1 1 1 1 1 1 1 1 1 
1 1 1 1 1 1 1 1 1 
1 1 1 1 1 1 1 1 1 
1 1 1 1 1 1 1 1 1 
1 1 1 1 1 1 1 1 1 
1 1 1 1 1 1 1 1 1 
1 1 1 1 1 1 1 1 1 
1 1 1 1 1 1 1 1 1 
1 1 1 1 1 1 1 1 1 
1 1 1 1 1 1 1 1 1 
1 1 1 1 1 1 1 1 1 
1 1 1 1 1 1 1 1 1 
1 1 1 1 1 1 1 1 1 
1 1 1 1 1 1 1 1 1 
1 1 1 1 1 1 1 1 1 
1 1 1 1 1 1 1 1 1 
1 1 1 1 1 1 1 1 1 
1 1 1 1 1 1 1 1 1 
1 1 1 1 1 1 1 1 1 
1 1 1 1 1 1 1 1 1 
1 1 1 1 1 1 1 1 1 
1 1 1 1 1 1 1 1 1 
1 1 1 1 1 1 1 1 1 
1 1 1 1 1 1 1 1 1 
1 1 1 1 1 1 1 1 1 
1 1 1 1 1 1 1 1 1 
1 1 1 1 1 1 1 1 1 
1 1 1 1 1 1 1 1 1 
1 1 1 1 1 1 1 1 1 
1 1 1 1 1 1 1 1 1 
1 1 1 1 1 1 1 1 1 
1 1 1 1 1 1 1 1 1 
1 1 1 1 1 1 1 1 1 
1 1 1 1 1 1 1 1 1 
1 1 1 1 1 1 1 1 1 
1 1 1 1 1 1 1 1 1 
1 1 1 1 1 1 1 1 1 
1 1 1 1 1 1 1 1 1 
1 1 1 1 1 1 1 1 1 
1 1 1 1 1 1 1 1 1 
1 1 1 1 1 1 1 1 1 
1 1 1 1 1 1 1 1 1 
1 1 1 1 1 1 1 1 1 
1 1 1 1 1 1 1 1 1 
1 1 1 1 1 1 1 1 1 
1 1 1 1 1 1 1 1 1 
1 1 1 1 1 1 1 1 1 
1 1 1 1 1 1 1 1 1 
1 1 1 1 1 1 1 1 1 
1 1 1 1 1 1 1 1 1 
1 1 1 1 1 1 1 1 1 
1 1 1 1 1 1 1 1 1 
1 1 1 1 1 1 1 1 1 
1 1 1 1 1 1 1 1 1 
1 1 1 1 1 1 1 1 1 
1 1 1 1 1 1 1 1 1 
1 1 1 1 1 1 1 1 1 
1 1 1 1 1 1 1 1 1 
1 1 1 1 1 1 1 1 1 
1 1 1 1 1 1 1 1 1 
1 1 1 1 1 1 1 1 1 
1 1 1 1 1 1 1 1 1 
1 1 1 1 1 1 1 1 1 
1 1 1 1 1 1 1 1 1 
1 1 1 1 1 1 1 1 1 
1 1 1 1 1 1 1 1 1 
1 1 1 1 1 1 1 1 1 
1 1 1 1 1 1 1 1 1 
1 1 1 1 1 1 1 1 1 
1 1 1 1 1 1 1 1 1 
1 1 1 1 1 1 1 1 1 
1 1 1 1 1 1 1 1 1 
1 1 1 1 1 1 1 1 1 
1 1 1 1 1 1 1 1 1 
1 1 1 1 1 1 1 1 1 
1 1 1 1 1 1 1 1 1 
1 1 1 1 1 1 1 1 1 
1 1 1 1 1 1 1 1 1 
1 1 1 1 1 1 1 1 1 
1 1 1 1 1 1 1 1 1 
1 1 1 1 1 1 1 1 1 
1 1 1 1 1 1 1 1 1 
1 1 1 1 1 1 1 1 1 
1 1 1 1 1 1 1 1 1 
1 1 1 1 1 1 1 1 1 
1 1 1 1 1 1 1 1 1 
1 1 1 1 1 1 1 1 1 
1 1 1 1 1 1 1 1 1 
1 1 1 1 1 1 1 1 1 
1 1 1 1 1 1 1 1 1 
1 1 1 1 1 1 1 1 1 
1 1 1 1 1 1 1 1 1 
1 1 1 1 1 1 1 1 1 
1 1 1 1 1 1 1 1 1 
1 1 1 1 1 1 1 1 1 
1 1 1 1 1 1 1 1 1 
1 1 1 1 1 1 1 1 1 
1 1 1 1 1 1 1 1 1 
1 1 1 1 1 1 1 1 1 
1 1 1 1 1 1 1 1 1 
1 1 1 1 1 1 1 1 1 
1 1 1 1 1 1 1 1 1 
1 1 1 1 1 1 1 1 1 
1 1 1 1 1 1 1 1 1 
1 1 1 1 1 1 1 1 1 
1 1 1 1 1 1 1 1 1 
1 1 1 1 1 1 1 1 1 
1 1 1 1 1 1 1 1 1 
1 1 1 1 1 1 1 1 1 
1 1 1 1 1 1 1 1 1 
1 1 1 1 1 1 1 1 1 
1 1 1 1 1 1 1 1 1 
1 1 1 1 1 1 1 1 1 
1 1 1 1 1 1 1 1 1 
1 1 1 1 1 1 1 1 1 
1 1 1 1 1 1 1 1 1 
1 1 1 1 1 1 1 1 1 
1 1 1 1 1 1 1 1 1 
1 1 1 1 1 1 1 1 1 
1 1 1 1 1 1 1 1 1 
1 1 1 1 1 1 1 1 1 
1 1 1 1 1 1 1 1 1 
1 1 1 1 1 1 1 1 1 
1 1 1 1 1 1 1 1 1 
1 1 1 1 1 1 1 1 1 
1 1 1 1 1 1 1 1 1 
1 1 1 1 1 1 1 1 1 
1 1 1 1 1 1 1 1 1 
1 1 1 1 1 1 1 1 1 
1 1 1 1 1 1 1 1 1 
1 1 1 1 1 1 1 1 1 
1 1 1 1 1 1 1 1 1 
1 1 1 1 1 1 1 1 1 
1 1 1 1 1 1 1 1 1 
1 1 1 1 1 1 1 1 1 
1 1 1 1 1 1 1 1 1 
1 1 1 1 1 1 1 1 1 
1 1 1 1 1 1 1 1 1 
1 1 1 1 1 1 1 1 1 
1 1 1 1 1 1 1 1 1 
1 1 1 1 1 1 1 1 1 
1 1 1 1 1 1 1 1 1 
1 1 1 1 1 1 1 1 1 
1 1 1 1 1 1 1 1 1 
1 1 1 1 1 1 1 1 1 
1 1 1 1 1 1 1 1 1 
1 1 1 1 1 1 1 1 1 
1 1 1 1 1 1 1 1 1 
1 1 1 1 1 1 1 1 1 
1 1 1 1 1 1 1 1 1 
1 1 1 1 1 1 1 1 1 
1 1 1 1 1 1 1 1 1 
1 1 1 1 1 1 1 1 1 
1 1 1 1 1 1 1 1 1 
1 1 1 1 1 1 1 1 1 
1 1 1 1 1 1 1 1 1 
1 1 1 1 1 1 1 1 1 
1 1 1 1 1 1 1 1 1 
1 1 1 1 1 1 1 1 1 
1 1 1 1 1 1 1 1 1 
1 1 1 1 1 1 1 1 1 
1 1 1 1 1 1 1 1 1 
1 1 1 1 1 1 1 1 1 
1 1 1 1 1 1 1 1 1 
1 1 1 1 1 1 1 1 1 
1 1 1 1 1 1 1 1 1 
1 1 1 1 1 1 1 1 1 
1 1 1 1 1 1 1 1 1 
1 1 1 1 1 1 1 1 1 
1 1 1 1 1 1 1 1 1 
1 1 1 1 1 1 1 1 1 
1 1 1 1 1 1 1 1 1 
1 1 1 1 1 1 1 1 1 
1 1 1 1 1 1 1 1 1 
1 1 1 1 1 1 1 1 1 
1 1 1 1 1 1 1 1 1 
1 1 1 1 1 1 1 1 1 
1 1 1 1 1 1 1 1 1 
1 1 1 1 1 1 1 1 1 
1 1 1 1 1 1 1 1 1 
1 1 1 1 1 1 1 1 1 
1 1 1 1 1 1 1 1 1 
1 1 1 1 1 1 1 1 1 
1 1 1 1 1 1 1 1 1 
1 1 1 1 1 1 1 1 1 
1 1 1 1 1 1 1 1 1 
1 1 1 1 1 1 1 1 1 
1 1 1 1 1 1 1 1 1 
1 1 1 1 1 1 1 1 1 
1 1 1 1 1 1 1 1 1 
1 1 1 1 1 1 1 1 1 
1 1 1 1 1 1 1 1 1 
1 1 1 1 1 1 1 1 1 
1 1 1 1 1 1 1 1 1 
1 1 1 1 1 1 1 1 1 
1 1 1 1 1 1 1 1 1 
1 1 1 1 1 1 1 1 1 
1 1 1 1 1 1 1 1 1 
1 1 1 1 1 1 1 1 1 
1 1 1 1 1 1 1 1 1 
1 1 1 1 1 1 1 1 1 
1 1 1 1 1 1 1 1 1 
1 1 1 1 1 1 1 1 1 
1 1 1 1 1 1 1 1 1 
1 1 1 1 1 1 1 1 1 
1 1 1 1 1 1 1 1 1 
1 1 1 1 1 1 1 1 1 
1 1 1 1 1 1 1 1 1 
1 1 1 1 1 1 1 1 1 
1 1 1 1 1 1 1 1 1 
1 1 1 1 1 1 1 1 1 
1 1 1 1 1 1 1 1 1 
1 1 1 1 1 1 1 1 1 
1 1 1 1 1 1 1 1 1 
1 1 1 1 1 1 1 1 1 
1 1 1 1 1 1 1 1 1 
1 1 1 1 1 1 1 1 1 
1 1 1 1 1 1 1 1 1 
1 1 1 1 1 1 1 1 1 
1 1 1 1 1 1 1 1 1 
1 1 1 1 1 1 1 1 1 
1 1 1 1 1 1 1 1 1 
1 1 1 1 1 1 1 1 1 
1 1 1 1 1 1 1 1 1 
1 1 1 1 1 1 1 1 1 
1 1 1 1 1 1 1 1 1 
1 1 1 1 1 1 1 1 1 
1 1 1 1 1 1 1 1 1 
1 1 1 1 1 1 1 1 1 
1 1 1 1 1 1 1 1 1 
1 1 1 1 1 1 1 1 1 
1 1 1 1 1 1 1 1 1 
1 1 1 1 1 1 1 1 1 
1 1 1 1 1 1 1 1 1 
1 1 1 1 1 1 1 1 1 
1 1 1 1 1 1 1 1 1 
1 1 1 1 1 1 1 1 1 
1 1 1 1 1 1 1 1 1 
1 1 1 1 1 1 1 1 1 
1 1 1 1 1 1 1 1 1 
1 1 1 1 1 1 1 1 1 
1 1 1 1 1 1 1 1 1 
1 1 1 1 1 1 1 1 1 
1 1 1 1 1 1 1 1 1 
1 1 1 1 1 1 1 1 1 
1 1 1 1 1 1 1 1 1 
1 1 1 1 1 1 1 1 1 
1 1 1 1 1 1 1 1 1 
1 1 1 1 1 1 1 1 1 
1 1 1 1 1 1 1 1 1 
1 1 1 1 1 1 1 1 1 
1 1 1 1 1 1 1 1 1 
1 1 1 1 1 1 1 1 1 
1 1 1 1 1 1 1 1 1 
1 1 1 1 1 1 1 1 1 
1 1 1 1 1 1 1 1 1 
1 1 1 1 1 1 1 1 1 
1 1 1 1 1 1 1 1 1 
1 1 1 1 1 1 1 1 1 
1 1 1 1 1 1 1 1 1 
1 1 1 1 1 1 1 1 1 
1 1 1 1 1 1 1 1 1 
1 1 1 1 1 1 1 1 1 
1 1 1 1 1 1 1 1 1 
1 1 1 1 1 1 1 1 1 
1 1 1 1 1 1 1 1 1 
1 1 1 1 1 1 1 1 1 
1 1 1 1 1 1 1 1 1 
1 1 1 1 1 1 1 1 1 
1 1 1 1 1 1 1 1 1 
1 1 1 1 1 1 1 1 1 
1 1 1 1 1 1 1 1 1 
1 1 1 1 1 1 1 1 1 
1 1 1 1 1 1 1 1 1 
1 1 1 1 1 1 1 1 1 
1 1 1 1 1 1 1 1 1 
1 1 1 1 1 1 1 1 1 
1 1 1 1 1 1 1 1 1 
1 1 1 1 1 1 1 1 1 
1 1 1 1 1 1 1 1 1 
1 1 1 1 1 1 1 1 1 
1 1 1 1 1 1 1 1 1 
1 1 1 1 1 1 1 1 1 
1 1 1 1 1 1 1 1 1 
1 1 1 1 1 1 1 1 1 
1 1 1 1 1 1 1 1 1 
1 1 1 1 1 1 1 1 1 
1 1 1 1 1 1 1 1 1 
1 1 1 1 1 1 1 1 1 
1 1 1 1 1 1 1 1 1 
1 1 1 1 1 1 1 1 1 
1 1 1 1 1 1 1 1 1 
1 1 1 1 1 1 1 1 1 
1 1 1 1 1 1 1 1 1 
1 1 1 1 1 1 1 1 1 
1 1 1 1 1 1 1 1 1 
1 1 1 1 1 1 1 1 1 
1 1 1 1 1 1 1 1 1 
1 1 1 1 1 1 1 1 1 
1 1 1 1 1 1 1 1 1 
1 1 1 1 1 1 1 1 1 
1 1 1 1 1 1 1 1 1 
1 1 1 1 1 1 1 1 1 
1 1 1 1 1 1 1 1 1 
1 1 1 1 1 1 1 1 1 
1 1 1 1 1 1 1 1 1 
1 1 1 1 1 1 1 1 1 
1 1 1 1 1 1 1 1 1 
1 1 1 1 1 1 1 1 1 
1 1 1 1 1 1 1 1 1 
1 1 1 1 1 1 1 1 1 
1 1 1 1 1 1 1 1 1 
1 1 1 1 1 1 1 1 1 
1 1 1 1 1 1 1 1 1 
1 1 1 1 1 1 1 1 1 
1 1 1 1 1 1 1 1 1 
1 1 1 1 1 1 1 1 1 
1 1 1 1 1 1 1 1 1 
1 1 1 1 1 1 1 1 1 
1 1 1 1 1 1 1 1 1 
1 1 1 1 1 1 1 1 1 
1 1 1 1 1 1 1 1 1 
1 1 1 1 1 1 1 1 1 
1 1 1 1 1 1 1 1 1 
1 1 1 1 1 1 1 1 1 
1 1 1 1 1 1 1 1 1 
1 1 1 1 1 1 1 1 1 
1 1 1 1 1 1 1 1 1 
1 1 1 1 1 1 1 1 1 
1 1 1 1 1 1 1 1 1 
1 1 1 1 1 1 1 1 1 
1 1 1 1 1 1 1 1 1 
1 1 1 1 1 1 1 1 1 
1 1 1 1 1 1 1 1 1 
1 1 1 1 1 1 1 1 1 
1 1 1 1 1 1 1 1 1 
1 1 1 1 1 1 1 1 1 
1 1 1 1 1 1 1 1 1 
1 1 1 1 1 1 1 1 1 
1 1 1 1 1 1 1 1 1 
1 1 1 1 1 1 1 1 1 
1 1 1 1 1 1 1 1 1 
1 1 1 1 1 1 1 1 1 
1 1 1 1 1 1 1 1 1 
1 1 1 1 1 1 1 1 1 
1 1 1 1 1 1 1 1 1 
1 1 1 1 1 1 1 1 1 
1 1 1 1 1 1 1 1 1 
1 1 1 1 1 1 1 1 1 
1 1 1 1 1 1 1 1 1 
1 1 1 1 1 1 1 1 1 
1 1 1 1 1 1 1 1 1 
1 1 1 1 1 1 1 1 1 
1 1 1 1 1 1 1 1 1 
1 1 1 1 1 1 1 1 1 
1 1 1 1 1 1 1 1 1 
1 1 1 1 1 1 1 1 1 
1 1 1 1 1 1 1 1 1 
1 1 1 1 1 1 1 1 1 
1 1 1 1 1 1 1 1 1 
1 1 1 1 1 1 1 1 1 
1 1 1 1 1 1 1 1 1 
1 1 1 1 1 1 1 1 1 
1 1 1 1 1 1 1 1 1 
1 1 1 1 1 1 1 1 1 
1 1 1 1 1 1 1 1 1 
1 1 1 1 1 1 1 1 1 
1 1 1 1 1 1 1 1 1 
1 1 1 1 1 1 1 1 1 
1 1 1 1 1 1 1 1 1 
1 1 1 1 1 1 1 1 1 
1 1 1 1 1 1 1 1 1 
1 1 1 1 1 1 1 1 1 
1 1 1 1 1 1 1 1 1 
1 1 1 1 1 1 1 1 1 
1 1 1 1 1 1 1 1 1 
1 1 1 1 1 1 1 1 1 
1 1 1 1 1 1 1 1 1 
1 1 1 1 1 1 1 1 1 
1 1 1 1 1 1 1 1 1 
1 1 1 1 1 1 1 1 1 
1 1 1 1 1 1 1 1 1 
1 1 1 1 1 1 1 1 1 
1 1 1 1 1 1 1 1 1 
1 1 1 1 1 1 1 1 1 
1 1 1 1 1 1 1 1 1 
1 1 1 1 1 1 1 1 1 
1 1 1 1 1 1 1 1 1 
1 1 1 1 1 1 1 1 1 
1 1 1 1 1 1 1 1 1 
1 1 1 1 1 1 1 1 1 
1 1 1 1 1 1 1 1 1 
1 1 1 1 1 1 1 1 1 
1 1 1 1 1 1 1 1 1 
1 1 1 1 1 1 1 1 1 
1 1 1 1 1 1 1 1 1 
1 1 1 1 1 1 1 1 1 
1 1 1 1 1 1 1 1 1 
1 1 1 1 1 1 1 1 1 
1 1 1 1 1 1 1 1 1 
1 1 1 1 1 1 1 1 1 
1 1 1 1 1 1 1 1 1 
1 1 1 1 1 1 1 1 1 
1 1 1 1 1 1 1 1 1 
1 1 1 1 1 1 1 1 1 
1 1 1 1 1 1 1 1 1 
1 1 1 1 1 1 1 1 1 
1 1 1 1 1 1 1 1 1 
1 1 1 1 1 1 1 1 1 
1 1 1 1 1 1 1 1 1 
1 1 1 1 1 1 1 1 1 
1 1 1 1 1 1 1 1 1 
1 1 1 1 1 1 1 1 1 
1 1 1 1 1 1 1 1 1 
1 1 1 1 1 1 1 1 1 
1 1 1 1 1 1 1 1 1 
1 1 1 1 1 1 1 1 1 
1 1 1 1 1 1 1 1 1 
1 1 1 1 1 1 1 1 1 
1 1 1 1 1 1 1 1 1 
1 1 1 1 1 1 1 1 1 
1 1 1 1 1 1 1 1 1 
1 1 1 1 1 1 1 1 1 
1 1 1 1 1 1 1 1 1 
1 1 1 1 1 1 1 1 1 
1 1 1 1 1 1 1 1 1 
1 1 1 1 1 1 1 1 1 
1 1 1 1 1 1 1 1 1 
1 1 1 1 1 1 1 1 1 
1 1 1 1 1 1 1 1 1 
1 1 1 1 1 1 1 1 1 
1 1 1 1 1 1 1 1 1 
1 1 1 1 1 1 1 1 1 
1 1 1 1 1 1 1 1 1 
1 1 1 1 1 1 1 1 1 
1 1 1 1 1 1 1 1 1 
1 1 1 1 1 1 1 1 1 
1 1 1 1 1 1 1 1 1 
1 1 1 1 1 1 1 1 1 
1 1 1 1 1 1 1 1 1 
1 1 1 1 1 1 1 1 1 
1 1 1 1 1 1 1 1 1 
1 1 1 1 1 1 1 1 1 
1 1 1 1 1 1 1 1 1 
1 1 1 1 1 1 1 1 1 
1 1 1 1 1 1 1 1 1 
1 1 1 1 1 1 1 1 1 
1 1 1 1 1 1 1 1 1 
1 1 1 1 1 1 1 1 1 
1 1 1 1 1 1 1 1 1 
1 1 1 1 1 1 1 1 1 
1 1 1 1 1 1 1 1 1 
1 1 1 1 1 1 1 1 1 
1 1 1 1 1 1 1 1 1 
1 1 1 1 1 1 1 1 1 
1 1 1 1 1 1 1 1 1 
1 1 1 1 1 1 1 1 1 
1 1 1 1 1 1 1 1 1 
1 1 1 1 1 1 1 1 1 
1 1 1 1 1 1 1 1 1 
1 1 1 1 1 1 1 1 1 
1 1 1 1 1 1 1 1 1 
1 1 1 1 1 1 1 1 1 
1 1 1 1 1 1 1 1 1 
1 1 1 1 1 1 1 
NORMALS normals float
0 0 -1 0 -0.700209 -0.713938 -0.999808 0 -0.0196041 
0.700209 0 -0.713938 0 0.700209 -0.713938 -0.0192237 -0.0192237 -0.99963 
-0.0192237 -0.99963 -0.0192237 -0.707041 -0.013597 -0.707041 0 -0.0192272 -0.999815 
0 -0.999815 -0.0192272 0 -0.0192272 -0.999815 0 -0.999815 -0.0192272 
0.0192237 -0.0192237 -0.99963 0.0192237 -0.99963 -0.0192237 0.99963 -0.0192237 -0.0192237 
-0.0192237 0.0192237 -0.99963 -0.99963 0.0192237 -0.0192237 0 0.0192272 -0.999815 
0 0.0192272 -0.999815 0.0192237 0.0192237 -0.99963 0.720764 -0.693042 -0.0138608 
-0.0192237 0.99963 -0.0192237 0 0.999815 -0.0192272 0 0.999815 -0.0192272 
-0.562259 0.58475 -0.58475 0.693042 -0.720764 -0.0138608 -0.58475 0.562259 -0.58475 
-0.0192237 -0.0192237 -0.99963 0.0192272 0 -0.999815 0.0196003 -0.999616 -0.0196003 
0.999815 0 -0.0192272 0 0.0192272 -0.999815 -0.700143 0.0137283 -0.713871 
0.569877 0.581051 -0.581051 0.581051 0.569877 -0.581051 0 0.999815 -0.0192272 
-0.0192237 -0.0192237 -0.99963 -0.0192237 -0.99963 -0.0192237 -0.707041 -0.013597 -0.707041 
0.0192272 0 -0.999815 0.0196003 -0.999616 -0.0196003 0.999815 0 -0.0192272 
0 0.0192272 -0.999815 -0.700143 0.0137283 -0.713871 0.569877 0.581051 -0.581051 
0.581051 0.569877 -0.581051 0 0.999815 -0.0192272 -0.0192237 -0.0192237 -0.99963 
-0.0192237 -0.99963 -0.0192237 -0.707041 -0.013597 -0.707041 0.0192272 0 -0.999815 
0.0196003 -0.999616 -0.0196003 0.999815 0 -0.0192272 0 0.0192272 -0.999815 
-0.700143 0.0137283 -0.713871 0.700143 0.713871 -0.0137283 0.713871 0.700143 -0.0137283 
0 0.999815 -0.0192272 -0.0192237 -0.0192237 -0.99963 -0.013597 -0.707041 -0.707041 
-0.707041 -0.013597 -0.707041 0.0192272 0 -0.999815 0.0137283 -0.700143 -0.713871 
0.999815 0 -0.0192272 0 0.0192272 -0.999815 -0.999616 0.0196003 -0.0196003 
0.569877 0.581051 -0.581051 0.581051 0.569877 -0.581051 0 0.999815 -0.0192272 
-0.0192237 -0.0192237 -0.99963 -0.0192237 -0.99963 -0.0192237 -0.707041 -0.013597 -0.707041 
0.0192237 -0.0192237 -0.99963 0.0192237 -0.99963 -0.0192237 0.99963 -0.0192237 -0.0192237 
-0.0192237 0.0192237 -0.99963 -0.707041 0.013597 -0.707041 0.0192237 0.0192237 -0.99963 
0.720764 -0.693042 -0.0138608 -0.0192237 -0.0192237 -0.99963 -0.013597 -0.707041 -0.707041 
-0.99963 -0.0192237 -0.0192237 0.0192272 0 -0.999815 0.0137283 -0.700143 -0.713871 
0.999815 0 -0.0192272 -0.0192237 0.99963 -0.0192237 -0.562259 0.58475 -0.58475 
0.693042 -0.720764 -0.0138608 -0.58475 0.562259 -0.58475 -0.013597 -0.707041 -0.707041 
0.0192237 -0.0192237 -0.99963 0.0192237 -0.99963 -0.0192237 0.99963 -0.0192237 -0.0192237 
0 0.0192272 -0.999815 -0.999616 0.0196003 -0.0196003 0.569877 0.581051 -0.581051 
0.581051 0.569877 -0.581051 -0.713938 0 -0.700209 0.707107 0 -0.707107 
0.999815 0 -0.0192272 0 0.999815 -0.0192272 -0.0137283 0.700143 -0.713871 
-0.707107 0 -0.707107 0.0192272 0 -0.999815 0.999815 0 -0.0192272 
-0.0192237 0.0192237 -0.99963 -0.707041 0.013597 -0.707041 0.0192237 0.0192237 -0.99963 
0.720764 -0.693042 -0.0138608 -0.0192237 0.99963 -0.0192237 -0.562259 0.58475 -0.58475 
0.693042 -0.720764 -0.0138608 -0.58475 0.562259 -0.58475 -0.0192237 -0.0192237 -0.99963 
0.0192272 0 -0.999815 0.0196003 -0.999616 -0.0196003 0.999815 0 -0.0192272 
0 0.0192272 -0.999815 -0.999616 0.0196003 -0.0196003 0.700143 0.713871 -0.0137283 
0.713871 0.700143 -0.0137283 -0.0192237 -0.0192237 -0.99963 -0.013597 -0.707041 -0.707041 
-0.707041 -0.013597 -0.707041 0.0196041 0 -0.999808 0.0138635 -0.707039 -0.707039 
1 0 0 0 0.999815 -0.0192272 0 0.0196041 -0.999808 
-0.999808 0.0196041 0 0.700209 0.713938 0 0.713938 0.700209 0 
0 1 0 -0.713938 0 -0.700209 -0.0196041 -0.999808 0 
-1 0 0 0 -1 0 0 -1 0 
0 -1 0 0.0192272 -0.999815 0 0.999815 -0.0192272 0 
-0.713938 0.700209 0 -0.707107 0.707107 0 0.713938 -0.700209 0 
-0.0137283 0.713871 -0.700143 0 0.713938 -0.700209 -0.573577 0.584824 -0.573577 
-0.581051 0.569877 -0.581051 -0.581051 0.569877 -0.581051 0.700209 -0.713938 0 
0.0192272 -0.999815 0 0.581051 -0.581051 -0.569877 -0.707041 0.013597 -0.707041 
-0.707041 0.013597 -0.707041 0.569877 0.581051 -0.581051 0.573577 -0.573577 -0.584824 
0 0 -1 0.0192237 -0.0192237 -0.99963 0.013597 -0.707041 -0.707041 
0.707041 -0.707041 -0.013597 -0.013597 0.707041 -0.707041 0 0.713938 -0.700209 
0 0.707107 -0.707107 -0.573577 0.573577 -0.584824 -0.581051 0.569877 -0.581051 
-0.707107 0 -0.707107 0.700209 -0.713938 0 0.0192272 -0.999815 0 
0.999815 -0.0192272 0 -0.707041 0.013597 -0.707041 -0.707041 0.013597 -0.707041 
0.57735 0.57735 -0.57735 0.99963 0.0192237 -0.0192237 -0.013597 0.707041 -0.707041 
0 0.713938 -0.700209 0.013597 0.707041 -0.707041 0 -0.0192272 -0.999815 
0 -0.999815 -0.0192272 -0.700143 -0.0137283 -0.713871 0.569877 -0.581051 -0.581051 
-0.0192237 0.0192237 -0.99963 -0.707041 0.013597 -0.707041 0.581051 -0.569877 -0.581051 
0.0192272 0 -0.999815 0.707107 0 -0.707107 -0.013597 0.707041 -0.707041 
0.0137283 0.700143 -0.713871 -0.707041 -0.013597 -0.707041 -0.0192237 -0.99963 -0.0192237 
-0.707041 -0.013597 -0.707041 0 -1 0 0.0196041 -0.999808 0 