# vtk DataFile Version 3.0
vtk output
ASCII
DATASET POLYDATA
POINTS 6248 float
130 67 92.0152 130 66.0152 93 129.015 67 93 
131 67 92.0152 131 66.0152 93 131.985 67 93 
130 68 92.0152 129.015 68 93 130.985 68 93 
131 67.9848 93 129 69 92.0152 129 68.0152 93 
128.015 69 93 130 69 92.0152 130.985 69 93 
128 70 92.0152 128 69.0152 93 127.015 70 93 
129 69.9848 93 128.985 70 93 130 69.9848 93 
128 71 92.0152 127.015 71 93 128.985 71 93 
128 72 92.0152 127.015 72 93 128.985 72 93 
128 72.9848 93 132 75 92.0152 132 74.0152 93 
131.015 75 93 133 75 92.0152 133 74.0152 93 
134 75 92.0152 134 74.0152 93 134.985 75 93 
132 76 92.0152 131.015 76 93 132.985 76 93 
133 75.9848 93 133.015 76 93 134 76 92.0152 
134.985 76 93 132 76.9848 93 134 77 92.0152 
133.015 77 93 135 76.0152 93 135 77 92.0152 
136 77 92.0152 136 76.0152 93 136.985 77 93 
134 78 92.0152 133.015 78 93 134.985 78 93 
135 77.9848 93 136 77.9848 93 134 78.9848 93 
129 60 93.0152 129 59.0152 94 128.015 60 94 
130 60 93.0152 130 59.0152 94 130.985 60 94 
129 61 93.0152 128.015 61 94 130 61 93.0152 
130.985 61 94 129 62 93.0152 128.015 62 94 
130 62 93.0152 131 61.0152 94 131 62 93.0152 
132 62 93.0152 132 61.0152 94 132.985 62 94 
129 63 93.0152 128.015 63 94 130 63 93.0152 
131 63 93.0152 132 63 93.0152 132.985 63 94 
129 64 93.0152 128.015 64 94 130 64 93.0152 
131 64 93.0152 132 64 93.0152 132.985 64 94 
129 65 93.0152 128.015 65 94 130 65 93.0152 
131 65 93.0152 132 65 93.0152 132.985 65 94 
129 66 93.0152 128.015 66 94 130 66 93.0152 
131 66 93.0152 132 66 93.0152 132.985 66 94 
151 66 93.0152 151 65.0152 94 150.015 66 94 
152 66 93.0152 152 65.0152 94 152.985 66 94 
129 67 93.0152 128.015 67 94 132 67 93.0152 
132.985 67 94 151 67 93.0152 150.015 67 94 
151.985 67 94 152 66.9848 94 129 68 93.0152 
128.015 68 94 131 68 93.0152 132 68 93.0152 
133 67.0152 94 133 68 93.0152 134 68 93.0152 
134 67.0152 94 134.985 68 94 151 67.9848 94 
128 69 93.0152 128 68.0152 94 127.015 69 94 
131 69 93.0152 132 69 93.0152 133 69 93.0152 
134 69 93.0152 134.985 69 94 127 70 93.0152 
127 69.0152 94 126.015 70 94 129 70 93.0152 
130 70 93.0152 131 70 93.0152 132 70 93.0152 
133 70 93.0152 134 70 93.0152 134.985 70 94 
127 71 93.0152 126.015 71 94 129 71 93.0152 
130 71 93.0152 131 71 93.0152 132 71 93.0152 
133 71 93.0152 134 71 93.0152 134.985 71 94 
127 72 93.0152 126.015 72 94 129 72 93.0152 
130 72 93.0152 131 72 93.0152 132 72 93.0152 
133 72 93.0152 134 72 93.0152 135 71.0152 94 
135 72 93.0152 136 72 93.0152 136 71.0152 94 
136.985 72 94 127 73 93.0152 126.015 73 94 
128 73 93.0152 129 73 93.0152 130 73 93.0152 
131 73 93.0152 132 73 93.0152 133 73 93.0152 
134 73 93.0152 135 73 93.0152 136 73 93.0152 
136.985 73 94 127 73.9848 94 128 73.9848 94 
128.015 74 94 129 74 93.0152 130 74 93.0152 
131 74 93.0152 132 74 93.0152 133 74 93.0152 
134 74 93.0152 135 74 93.0152 136 74 93.0152 
136.985 74 94 129 75 93.0152 128.015 75 94 
130 75 93.0152 131 75 93.0152 135 75 93.0152 
136 75 93.0152 136.985 75 94 129 75.9848 94 
130 75.9848 94 130.015 76 94 131 76 93.0152 
133 76 93.0152 135 76 93.0152 136 76 93.0152 
136.985 76 94 131 77 93.0152 130.015 77 94 
132 77 93.0152 133 77 93.0152 136.985 77 94 
131 77.9848 94 132 77.9848 94 132.015 78 94 
133 78 93.0152 135 78 93.0152 136 78 93.0152 
137 77.0152 94 137 78 93.0152 138 78 93.0152 
138 77.0152 94 138.985 78 94 133 79 93.0152 
132.015 79 94 134 79 93.0152 135 79 93.0152 
136 79 93.0152 137 79 93.0152 138 79 93.0152 
138.985 79 94 133 79.9848 94 134 79.9848 94 
135 79.9848 94 136 79.9848 94 136.015 80 94 
137 80 93.0152 138 80 93.0152 138.985 80 94 
137 81 93.0152 136.015 81 94 137.985 81 94 
138 80.9848 94 137 81.9848 94 129 59.0152 95 
128.015 60 95 130 60 94.9848 129.985 60 95 
128.015 61 95 130 60.0152 95 130.985 61 95 
128.015 62 95 131 61.0152 95 132 62 94.9848 
131.985 62 95 128.015 63 95 132 62.0152 95 
132.985 63 95 128.015 64 95 132.985 64 95 
128.015 65 95 132.985 65 95 144 65 94.0152 
144 64.0152 95 143.015 65 95 145 65 94.0152 
145 64.0152 95 146 65 94.0152 146 64.0152 95 
147 65 94.0152 147 64.0152 95 148 65 94.0152 
148 64.0152 95 148.985 65 95 128.015 66 95 
132.985 66 95 144 66 94.0152 143.015 66 95 
144.985 66 95 145 65.9848 95 146 65.9848 95 
147 65.9848 95 148 65.9848 95 150 66 94.0152 
150 65.0152 95 149.015 66 95 151 65.0152 95 
152 65.0152 95 152.985 66 95 128.015 67 95 
133 66.0152 95 133 67 94.0152 134 67 94.0152 
134 66.0152 95 135 67 94.0152 135 66.0152 95 
136 67 94.0152 136 66.0152 95 137 67 94.0152 
137 66.0152 95 138 67 94.0152 138 66.0152 95 
139 67 94.0152 139 66.0152 95 140 67 94.0152 
140 66.0152 95 141 67 94.0152 141 66.0152 95 
142 67 94.0152 142 66.0152 95 143 67 94.0152 
143 66.0152 95 144 67 94.0152 144.985 67 95 
150 67 94.0152 149.015 67 95 151.985 67 95 
152 66.9848 95 128.015 68 95 135 67.9848 95 
134.985 68 95 136 67.9848 95 137 67.9848 95 
138 67.9848 95 139 67.9848 95 140 67.9848 95 
141 67.9848 95 142 67.9848 95 143 67.9848 95 
144 67.9848 95 150 67.9848 95 151 67.9848 95 
128 68.0152 95 127.015 69 95 134.985 69 95 
127 69.0152 95 126.015 70 95 134.985 70 95 
126.015 71 95 135 70.0152 95 135 71 94.0152 
136 71 94.0152 136 70.0152 95 136.985 71 95 
126.015 72 95 136.985 72 95 126.015 73 95 
136.985 73 95 127 73.9848 95 128 74 94.0152 
127.015 74 95 136.985 74 95 128 74.9848 95 
128.015 75 95 136.985 75 95 129 75.9848 95 
130 76 94.0152 129.015 76 95 136.985 76 95 
130 76.9848 95 130.015 77 95 137 76.0152 95 
137 77 94.0152 138 77 94.0152 138 76.0152 95 
138.985 77 95 131 77.9848 95 132 78 94.0152 
131.015 78 95 138.985 78 95 132 78.9848 95 
132.015 79 95 138.985 79 95 133 79.9848 95 
134 79.9848 95 135 79.9848 95 136 80 94.0152 
135.015 80 95 138.985 80 95 136 80.9848 95 
136.015 81 95 137.985 81 95 138 80.9848 95 
137 81.9848 95 129 60 95.9848 129 61 95.9848 
130 61 95.9848 129 61.0152 96 128.015 62 96 
130 61.0152 96 131 62 95.9848 130.985 62 96 
135 62 95.0152 135 61.0152 96 134.015 62 96 
136 62 95.0152 136 61.0152 96 137 62 95.0152 
137 61.0152 96 138 62 95.0152 138 61.0152 96 
139 62 95.0152 139 61.0152 96 140 62 95.0152 
140 61.0152 96 141 62 95.0152 141 61.0152 96 
142 62 95.0152 142 61.0152 96 143 62 95.0152 
143 61.0152 96 144 62 95.0152 144 61.0152 96 
144.985 62 96 128.015 63 96 131 63 95.9848 
130.985 63 96 132 63 95.9848 134 63 95.0152 
134 62.0152 96 133.015 63 96 135 63 95.0152 
136 63 95.0152 137 63 95.0152 138 63 95.0152 
139 63 95.0152 140 63 95.0152 141 63 95.0152 
142 63 95.0152 143 63 95.0152 144 63 95.0152 
144.985 63 96 128.015 64 96 131 63.0152 96 
132 63.0152 96 133 63.0152 96 133 64 95.0152 
134 64 95.0152 135 64 95.0152 136 64 95.0152 
137 64 95.0152 138 64 95.0152 139 64 95.0152 
140 64 95.0152 141 64 95.0152 142 64 95.0152 
143 64 95.0152 144 64 95.0152 145 63.0152 96 
145 64 95.0152 146 64 95.0152 146 63.0152 96 
147 64 95.0152 147 63.0152 96 148 64 95.0152 
148 63.0152 96 148.985 64 96 128.015 65 96 
133 65 95.0152 134 65 95.0152 135 65 95.0152 
136 65 95.0152 137 65 95.0152 138 65 95.0152 
139 65 95.0152 140 65 95.0152 141 65 95.0152 
142 65 95.0152 143 65 95.0152 148.985 65 96 
128.015 66 96 133 66 95.0152 134 66 95.0152 
135 66 95.0152 136 66 95.0152 137 66 95.0152 
138 66 95.0152 139 66 95.0152 140 66 95.0152 
141 66 95.0152 142 66 95.0152 143 66 95.0152 
145 66 95.0152 146 66 95.0152 147 66 95.0152 
148 66 95.0152 149 65.0152 96 149 66 95.0152 
150 65.0152 96 151 65.0152 96 152 65.0152 96 
152.985 66 96 128.015 67 96 145 67 95.0152 
146 67 95.0152 147 67 95.0152 148 67 95.0152 
149 67 95.0152 152 67 95.0152 152.985 67 96 
128.015 68 96 135 68 95.0152 136 68 95.0152 
137 68 95.0152 138 68 95.0152 139 68 95.0152 
140 68 95.0152 141 68 95.0152 142 68 95.0152 
143 68 95.0152 144 68 95.0152 145 68 95.0152 
146 68 95.0152 147 68 95.0152 148 68 95.0152 
149 68 95.0152 150 68 95.0152 151 68 95.0152 
152 68 95.0152 152.985 68 96 128 68.0152 96 
127.015 69 96 135 69 95.0152 136 69 95.0152 
137 69 95.0152 138 69 95.0152 139 69 95.0152 
140 69 95.0152 141 69 95.0152 142 69 95.0152 
143 69 95.0152 144 69 95.0152 145 69 95.0152 
146 69 95.0152 147 69 95.0152 148 69 95.0152 
149 69 95.0152 150 69 95.0152 151 69 95.0152 
152 69 95.0152 152.985 69 96 127 69.0152 96 
126.015 70 96 135 70 95.0152 136 70 95.0152 
137 70 95.0152 138 70 95.0152 139 70 95.0152 
140 70 95.0152 141 70 95.0152 142 70 95.0152 
143 70 95.0152 144 70 95.0152 145 70 95.0152 
146 70 95.0152 147 70 95.0152 148 70 95.0152 
149 70 95.0152 150 70 95.0152 151 70 95.0152 
152 70 95.0152 152.985 70 96 126.015 71 96 
137 71 95.0152 138 71 95.0152 139 71 95.0152 
140 71 95.0152 141 71 95.0152 142 71 95.0152 
143 71 95.0152 144 71 95.0152 145 71 95.0152 
146 71 95.0152 147 71 95.0152 148 71 95.0152 
149 71 95.0152 150 71 95.0152 151 71 95.0152 
152 71 95.0152 152.985 71 96 126.015 72 96 
137 72 95.0152 138 72 95.0152 139 72 95.0152 
140 72 95.0152 141 72 95.0152 142 72 95.0152 
143 72 95.0152 144 72 95.0152 145 72 95.0152 
146 72 95.0152 147 72 95.0152 148 72 95.0152 
149 72 95.0152 150 72 95.0152 151 72 95.0152 
152 72 95.0152 152.985 72 96 126.015 73 96 
137 73 95.0152 138 73 95.0152 139 73 95.0152 
140 73 95.0152 141 73 95.0152 142 73 95.0152 
143 73 95.0152 144 73 95.0152 145 73 95.0152 
146 73 95.0152 147 73 95.0152 148 73 95.0152 
149 73 95.0152 150 73 95.0152 151 73 95.0152 
152 73 95.0152 152.985 73 96 127 74 95.0152 
126.015 74 96 137 74 95.0152 138 74 95.0152 
139 74 95.0152 140 74 95.0152 141 74 95.0152 
142 74 95.0152 143 74 95.0152 144 74 95.0152 
145 74 95.0152 146 74 95.0152 147 74 95.0152 
148 74 95.0152 149 74 95.0152 150 74 95.0152 
151 74 95.0152 152 74 95.0152 153 73.0152 96 
153 74 95.0152 154 74 95.0152 154 73.0152 96 
154.985 74 96 127 75 95.0152 126.015 75 96 
128 75 95.0152 137 75 95.0152 138 75 95.0152 
139 75 95.0152 140 75 95.0152 141 75 95.0152 
142 75 95.0152 143 75 95.0152 144 75 95.0152 
145 75 95.0152 146 75 95.0152 147 75 95.0152 
148 75 95.0152 149 75 95.0152 150 75 95.0152 
151 75 95.0152 152 75 95.0152 153 75 95.0152 
153.985 75 96 154 74.9848 96 127 75.9848 96 
[...]
POINT_DATA 6248
SCALARS scalars float
LOOKUP_TABLE default
1 1 1 1 1 1 1 1 1 
1 1 1 1 1 1 1 1 1 
1 1 1 1 1 1 1 1 1 
1 1 1 1 1 1 1 1 1 
1 1 1 1 1 1 1 1 1 
1 1 1 1 1 1 1 1 1 
1 1 1 1 1 1 1 1 1 
1 1 1 1 1 1 1 1 1 
1 1 1 1 1 1 1 1 1 
1 1 1 1 1 1 1 1 1 
1 1 1 1 1 1 1 1 1 
1 1 1 1 1 1 1 1 1 
1 1 1 1 1 1 1 1 1 
1 1 1 1 1 1 1 1 1 
1 1 1 1 1 1 1 1 1 
1 1 1 1 1 1 1 1 1 
1 1 1 1 1 1 1 1 1 
1 1 1 1 1 1 1 1 1 
1 1 1 1 1 1 1 1 1 
1 1 1 1 1 1 1 1 1 
1 1 1 1 1 1 1 1 1 
1 1 1 1 1 1 1 1 1 
1 1 1 1 1 1 1 1 1 
1 1 1 1 1 1 1 1 1 
1 1 1 1 1 1 1 1 1 
1 1 1 1 1 1 1 1 1 
1 1 1 1 1 1 1 1 1 
1 1 1 1 1 1 1 1 1 
1 1 1 1 1 1 1 1 1 
1 1 1 1 1 1 1 1 1 
1 1 1 1 1 1 1 1 1 
1 1 1 1 1 1 1 1 1 
1 1 1 1 1 1 1 1 1 
1 1 1 1 1 1 1 1 1 
1 1 1 1 1 1 1 1 1 
1 1 1 1 1 1 1 1 1 
1 1 1 1 1 1 1 1 1 
1 1 1 1 1 1 1 1 1 
1 1 1 1 1 1 1 1 1 
1 1 1 1 1 1 1 1 1 
1 1 1 1 1 1 1 1 1 
1 1 1 1 1 1 1 1 1 
1 1 1 1 1 1 1 1 1 
1 1 1 1 1 1 1 1 1 
1 1 1 1 1 1 1 1 1 
1 1 1 1 1 1 1 1 1 
1 1 1 1 1 1 1 1 1 
1 1 1 1 1 1 1 1 1 
1 1 1 1 1 1 1 1 1 
1 1 1 1 1 1 1 1 1 
1 1 1 1 1 1 1 1 1 
1 1 1 1 1 1 1 1 1 
1 1 1 1 1 1 1 1 1 
1 1 1 1 1 1 1 1 1 
1 1 1 1 1 1 1 1 1 
1 1 1 1 1 1 1 1 1 
1 1 1 1 1 1 1 1 1 
1 1 1 1 1 1 1 1 1 
1 1 1 1 1 1 1 1 1 
1 1 1 1 1 1 1 1 1 
1 1 1 1 1 1 1 1 1 
1 1 1 1 1 1 1 1 1 
1 1 1 1 1 1 1 1 1 
1 1 1 1 1 1 1 1 1 
1 1 1 1 1 1 1 1 1 
1 1 1 1 1 1 1 1 1 
1 1 1 1 1 1 1 1 1 
1 1 1 1 1 1 1 1 1 
1 1 1 1 1 1 1 1 1 
1 1 1 1 1 1 1 1 1 
1 1 1 1 1 1 1 1 1 
1 1 1 1 1 1 1 1 1 
1 1 1 1 1 1 1 1 1 
1 1 1 1 1 1 1 1 1 
1 1 1 1 1 1 1 1 1 
1 1 1 1 1 1 1 1 1 
1 1 1 1 1 1 1 1 1 
1 1 1 1 1 1 1 1 1 
1 1 1 1 1 1 1 1 1 
1 1 1 1 1 1 1 1 1 
1 1 1 1 1 1 1 1 1 
1 1 1 1 1 1 1 1 1 
1 1 1 1 1 1 1 1 1 
1 1 1 1 1 1 1 1 1 
1 1 1 1 1 1 1 1 1 
1 1 1 1 1 1 1 1 1 
1 1 1 1 1 1 1 1 1 
1 1 1 1 1 1 1 1 1 
1 1 1 1 1 1 1 1 1 
1 1 1 1 1 1 1 1 1 
1 1 1 1 1 1 1 1 1 
1 1 1 1 1 1 1 1 1 
1 1 1 1 1 1 1 1 1 
1 1 1 1 1 1 1 1 1 
1 1 1 1 1 1 1 1 1 
1 1 1 1 1 1 1 1 1 
1 1 1 1 1 1 1 1 1 
1 1 1 1 1 1 1 1 1 
1 1 1 1 1 1 1 1 1 
1 1 1 1 1 1 1 1 1 
1 1 1 1 1 1 1 1 1 
1 1 1 1 1 1 1 1 1 
1 1 1 1 1 1 1 1 1 
1 1 1 1 1 1 1 1 1 
1 1 1 1 1 1 1 1 1 
1 1 1 1 1 1 1 1 1 
1 1 1 1 1 1 1 1 1 
1 1 1 1 1 1 1 1 1 
1 1 1 1 1 1 1 1 1 
1 1 1 1 1 1 1 1 1 
1 1 1 1 1 1 1 1 1 
1 1 1 1 1 1 1 1 1 
1 1 1 1 1 1 1 1 1 
1 1 1 1 1 1 1 1 1 
1 1 1 1 1 1 1 1 1 
1 1 1 1 1 1 1 1 1 
1 1 1 1 1 1 1 1 1 
1 1 1 1 1 1 1 1 1 
1 1 1 1 1 1 1 1 1 
1 1 1 1 1 1 1 1 1 
1 1 1 1 1 1 1 1 1 
1 1 1 1 1 1 1 1 1 
1 1 1 1 1 1 1 1 1 
1 1 1 1 1 1 1 1 1 
1 1 1 1 1 1 1 1 1 
1 1 1 1 1 1 1 1 1 
1 1 1 1 1 1 1 1 1 
1 1 1 1 1 1 1 1 1 
1 1 1 1 1 1 1 1 1 
1 1 1 1 1 1 1 1 1 
1 1 1 1 1 1 1 1 1 
1 1 1 1 1 1 1 1 1 
1 1 1 1 1 1 1 1 1 
1 1 1 1 1 1 1 1 1 
1 1 1 1 1 1 1 1 1 
1 1 1 1 1 1 1 1 1 
1 1 1 1 1 1 1 1 1 
1 1 1 1 1 1 1 1 1 
1 1 1 1 1 1 1 1 1 
1 1 1 1 1 1 1 1 1 
1 1 1 1 1 1 1 1 1 
1 1 1 1 1 1 1 1 1 
1 1 1 1 1 1 1 1 1 
1 1 1 1 1 1 1 1 1 
1 1 1 1 1 1 1 1 1 
1 1 1 1 1 1 1 1 1 
1 1 1 1 1 1 1 1 1 
1 1 1 1 1 1 1 1 1 
1 1 1 1 1 1 1 1 1 
1 1 1 1 1 1 1 1 1 
1 1 1 1 1 1 1 1 1 
1 1 1 1 1 1 1 1 1 
1 1 1 1 1 1 1 1 1 
1 1 1 1 1 1 1 1 1 
1 1 1 1 1 1 1 1 1 
1 1 1 1 1 1 1 1 1 
1 1 1 1 1 1 1 1 1 
1 1 1 1 1 1 1 1 1 
1 1 1 1 1 1 1 1 1 
1 1 1 1 1 1 1 1 1 
1 1 1 1 1 1 1 1 1 
1 1 1 1 1 1 1 1 1 
1 1 1 1 1 1 1 1 1 
1 1 1 1 1 1 1 1 1 
1 1 1 1 1 1 1 1 1 
1 1 1 1 1 1 1 1 1 
1 1 1 1 1 1 1 1 1 
1 1 1 1 1 1 1 1 1 
1 1 1 1 1 1 1 1 1 
1 1 1 1 1 1 1 1 1 
1 1 1 1 1 1 1 1 1 
1 1 1 1 1 1 1 1 1 
1 1 1 1 1 1 1 1 1 
1 1 1 1 1 1 1 1 1 
1 1 1 1 1 1 1 1 1 
1 1 1 1 1 1 1 1 1 
1 1 1 1 1 1 1 1 1 
1 1 1 1 1 1 1 1 1 
1 1 1 1 1 1 1 1 1 
1 1 1 1 1 1 1 1 1 
1 1 1 1 1 1 1 1 1 
1 1 1 1 1 1 1 1 1 
1 1 1 1 1 1 1 1 1 
1 1 1 1 1 1 1 1 1 
1 1 1 1 1 1 1 1 1 
1 1 1 1 1 1 1 1 1 
1 1 1 1 1 1 1 1 1 
1 1 1 1 1 1 1 1 1 
1 1 1 1 1 1 1 1 1 
1 1 1 1 1 1 1 1 1 
1 1 1 1 1 1 1 1 1 
1 1 1 1 1 1 1 1 1 
1 1 1 1 1 1 1 1 1 
1 1 1 1 1 1 1 1 1 
1 1 1 1 1 1 1 1 1 
1 1 1 1 1 1 1 1 1 
1 1 1 1 1 1 1 1 1 
1 1 1 1 1 1 1 1 1 
1 1 1 1 1 1 1 1 1 
1 1 1 1 1 1 1 1 1 
1 1 1 1 1 1 1 1 1 
1 1 1 1 1 1 1 1 1 
1 1 1 1 1 1 1 1 1 
1 1 1 1 1 1 1 1 1 
1 1 1 1 1 1 1 1 1 
1 1 1 1 1 1 1 1 1 
1 1 1 1 1 1 1 1 1 
1 1 1 1 1 1 1 1 1 
1 1 1 1 1 1 1 1 1 
1 1 1 1 1 1 1 1 1 
1 1 1 1 1 1 1 1 1 
1 1 1 1 1 1 1 1 1 
1 1 1 1 1 1 1 1 1 
1 1 1 1 1 1 1 1 1 
1 1 1 1 1 1 1 1 1 
1 1 1 1 1 1 1 1 1 
1 1 1 1 1 1 1 1 1 
1 1 1 1 1 1 1 1 1 
1 1 1 1 1 1 1 1 1 
1 1 1 1 1 1 1 1 1 
1 1 1 1 1 1 1 1 1 
1 1 1 1 1 1 1 1 1 
1 1 1 1 1 1 1 1 1 
1 1 1 1 1 1 1 1 1 
1 1 1 1 1 1 1 1 1 
1 1 1 1 1 1 1 1 1 
1 1 1 1 1 1 1 1 1 
1 1 1 1 1 1 1 1 1 
1 1 1 1 1 1 1 1 1 
1 1 1 1 1 1 1 1 1 
1 1 1 1 1 1 1 1 1 
1 1 1 1 1 1 1 1 1 
1 1 1 1 1 1 1 1 1 
1 1 1 1 1 1 1 1 1 
1 1 1 1 1 1 1 1 1 
1 1 1 1 1 1 1 1 1 
1 1 1 1 1 1 1 1 1 
1 1 1 1 1 1 1 1 1 
1 1 1 1 1 1 1 1 1 
1 1 1 1 1 1 1 1 1 
1 1 1 1 1 1 1 1 1 
1 1 1 1 1 1 1 1 1 
1 1 1 1 1 1 1 1 1 
1 1 1 1 1 1 1 1 1 
1 1 1 1 1 1 1 1 1 
1 1 1 1 1 1 1 1 1 
1 1 1 1 1 1 1 1 1 
1 1 1 1 1 1 1 1 1 
1 1 1 1 1 1 1 1 1 
1 1 1 1 1 1 1 1 1 
1 1 1 1 1 1 1 1 1 
1 1 1 1 1 1 1 1 1 
1 1 1 1 1 1 1 1 1 
1 1 1 1 1 1 1 1 1 
1 1 1 1 1 1 1 1 1 
1 1 1 1 1 1 1 1 1 
1 1 1 1 1 1 1 1 1 
1 1 1 1 1 1 1 1 1 
1 1 1 1 1 1 1 1 1 
1 1 1 1 1 1 1 1 1 
1 1 1 1 1 1 1 1 1 
1 1 1 1 1 1 1 1 1 
1 1 1 1 1 1 1 1 1 
1 1 1 1 1 1 1 1 1 
1 1 1 1 1 1 1 1 1 
1 1 1 1 1 1 1 1 1 
1 1 1 1 1 1 1 1 1 
1 1 1 1 1 1 1 1 1 
1 1 1 1 1 1 1 1 1 
1 1 1 1 1 1 1 1 1 
1 1 1 1 1 1 1 1 1 
1 1 1 1 1 1 1 1 1 
1 1 1 1 1 1 1 1 1 
1 1 1 1 1 1 1 1 1 
1 1 1 1 1 1 1 1 1 
1 1 1 1 1 1 1 1 1 
1 1 1 1 1 1 1 1 1 
1 1 1 1 1 1 1 1 1 
1 1 1 1 1 1 1 1 1 
1 1 1 1 1 1 1 1 1 
1 1 1 1 1 1 1 1 1 
1 1 1 1 1 1 1 1 1 
1 1 1 1 1 1 1 1 1 
1 1 1 1 1 1 1 1 1 
1 1 1 1 1 1 1 1 1 
1 1 1 1 1 1 1 1 1 
1 1 1 1 1 1 1 1 1 
1 1 1 1 1 1 1 1 1 
1 1 1 1 1 1 1 1 1 
1 1 1 1 1 1 1 1 1 
1 1 1 1 1 1 1 1 1 
1 1 1 1 1 1 1 1 1 
1 1 1 1 1 1 1 1 1 
1 1 1 1 1 1 1 1 1 
1 1 1 1 1 1 1 1 1 
1 1 1 1 1 1 1 1 1 
1 1 1 1 1 1 1 1 1 
1 1 1 1 1 1 1 1 1 
1 1 1 1 1 1 1 1 1 
1 1 1 1 1 1 1 1 1 
1 1 1 1 1 1 1 1 1 
1 1 1 1 1 1 1 1 1 
1 1 1 1 1 1 1 1 1 
1 1 1 1 1 1 1 1 1 
1 1 1 1 1 1 1 1 1 
1 1 1 1 1 1 1 1 1 
1 1 1 1 1 1 1 1 1 
1 1 1 1 1 1 1 1 1 
1 1 1 1 1 1 1 1 1 
1 1 1 1 1 1 1 1 1 
1 1 1 1 1 1 1 1 1 
1 1 1 1 1 1 1 1 1 
1 1 1 1 1 1 1 1 1 
1 1 1 1 1 1 1 1 1 
1 1 1 1 1 1 1 1 1 
1 1 1 1 1 1 1 1 1 
1 1 1 1 1 1 1 1 1 
1 1 1 1 1 1 1 1 1 
1 1 1 1 1 1 1 1 1 
1 1 1 1 1 1 1 1 1 
1 1 1 1 1 1 1 1 1 
1 1 1 1 1 1 1 1 1 
1 1 1 1 1 1 1 1 1 
1 1 1 1 1 1 1 1 1 
1 1 1 1 1 1 1 1 1 
1 1 1 1 1 1 1 1 1 
1 1 1 1 1 1 1 1 1 
1 1 1 1 1 1 1 1 1 
1 1 1 1 1 1 1 1 1 
1 1 1 1 1 1 1 1 1 
1 1 1 1 1 1 1 1 1 
1 1 1 1 1 1 1 1 1 
1 1 1 1 1 1 1 1 1 
1 1 1 1 1 1 1 1 1 
1 1 1 1 1 1 1 1 1 
1 1 1 1 1 1 1 1 1 
1 1 1 1 1 1 1 1 1 
1 1 1 1 1 1 1 1 1 
1 1 1 1 1 1 1 1 1 
1 1 1 1 1 1 1 1 1 
1 1 1 1 1 1 1 1 1 
1 1 1 1 1 1 1 1 1 
1 1 1 1 1 1 1 1 1 
1 1 1 1 1 1 1 1 1 
1 1 1 1 1 1 1 1 1 
1 1 1 1 1 1 1 1 1 
1 1 1 1 1 1 1 1 1 
1 1 1 1 1 1 1 1 1 
1 1 1 1 1 1 1 1 1 
1 1 1 1 1 1 1 1 1 
1 1 1 1 1 1 1 1 1 
1 1 1 1 1 1 1 1 1 
1 1 1 1 1 1 1 1 1 
1 1 1 1 1 1 1 1 1 
1 1 1 1 1 1 1 1 1 
1 1 1 1 1 1 1 1 1 
1 1 1 1 1 1 1 1 1 
1 1 1 1 1 1 1 1 1 
1 1 1 1 1 1 1 1 1 
1 1 1 1 1 1 1 1 1 
1 1 1 1 1 1 1 1 1 
1 1 1 1 1 1 1 1 1 
1 1 1 1 1 1 1 1 1 
1 1 1 1 1 1 1 1 1 
1 1 1 1 1 1 1 1 1 
1 1 1 1 1 1 1 1 1 
1 1 1 1 1 1 1 1 1 
1 1 1 1 1 1 1 1 1 
1 1 1 1 1 1 1 1 1 
1 1 1 1 1 1 1 1 1 
1 1 1 1 1 1 1 1 1 
1 1 1 1 1 1 1 1 1 
1 1 1 1 1 1 1 1 1 
1 1 1 1 1 1 1 1 1 
1 1 1 1 1 1 1 1 1 
1 1 1 1 1 1 1 1 1 
1 1 1 1 1 1 1 1 1 
1 1 1 1 1 1 1 1 1 
1 1 1 1 1 1 1 1 1 
1 1 1 1 1 1 1 1 1 
1 1 1 1 1 1 1 1 1 
1 1 1 1 1 1 1 1 1 
1 1 1 1 1 1 1 1 1 
1 1 1 1 1 1 1 1 1 
1 1 1 1 1 1 1 1 1 
1 1 1 1 1 1 1 1 1 
1 1 1 1 1 1 1 1 1 
1 1 1 1 1 1 1 1 1 
1 1 1 1 1 1 1 1 1 
1 1 1 1 1 1 1 1 1 
1 1 1 1 1 1 1 1 1 
1 1 1 1 1 1 1 1 1 
1 1 1 1 1 1 1 1 1 
1 1 1 1 1 1 1 1 1 
1 1 1 1 1 1 1 1 1 
1 1 1 1 1 1 1 1 1 
1 1 1 1 1 1 1 1 1 
1 1 1 1 1 1 1 1 1 
1 1 1 1 1 1 1 1 1 
1 1 1 1 1 1 1 1 1 
1 1 1 1 1 1 1 1 1 
1 1 1 1 1 1 1 1 1 
1 1 1 1 1 1 1 1 1 
1 1 1 1 1 1 1 1 1 
1 1 1 1 1 1 1 1 1 
1 1 1 1 1 1 1 1 1 
1 1 1 1 1 1 1 1 1 
1 1 1 1 1 1 1 1 1 
1 1 1 1 1 1 1 1 1 
1 1 1 1 1 1 1 1 1 
1 1 1 1 1 1 1 1 1 
1 1 1 1 1 1 1 1 1 
1 1 1 1 1 1 1 1 1 
1 1 1 1 1 1 1 1 1 
1 1 1 1 1 1 1 1 1 
1 1 1 1 1 1 1 1 1 
1 1 1 1 1 1 1 1 1 
1 1 1 1 1 1 1 1 1 
1 1 1 1 1 1 1 1 1 
1 1 1 1 1 1 1 1 1 
1 1 1 1 1 1 1 1 1 
1 1 1 1 1 1 1 1 1 
1 1 1 1 1 1 1 1 1 
1 1 1 1 1 1 1 1 1 
1 1 1 1 1 1 1 1 1 
1 1 1 1 1 1 1 1 1 
1 1 1 1 1 1 1 1 1 
1 1 1 1 1 1 1 1 1 
1 1 1 1 1 1 1 1 1 
1 1 1 1 1 1 1 1 1 
1 1 1 1 1 1 1 1 1 
1 1 1 1 1 1 1 1 1 
1 1 1 1 1 1 1 1 1 
1 1 1 1 1 1 1 1 1 
1 1 1 1 1 1 1 1 1 
1 1 1 1 1 1 1 1 1 
1 1 1 1 1 1 1 1 1 
1 1 1 1 1 1 1 1 1 
1 1 1 1 1 1 1 1 1 
1 1 1 1 1 1 1 1 1 
1 1 1 1 1 1 1 1 1 
1 1 1 1 1 1 1 1 1 
1 1 1 1 1 1 1 1 1 
1 1 1 1 1 1 1 1 1 
1 1 1 1 1 1 1 1 1 
1 1 1 1 1 1 1 1 1 
1 1 1 1 1 1 1 1 1 
1 1 1 1 1 1 1 1 1 
1 1 1 1 1 1 1 1 1 
1 1 1 1 1 1 1 1 1 
1 1 1 1 1 1 1 1 1 
1 1 1 1 1 1 1 1 1 
1 1 1 1 1 1 1 1 1 
1 1 1 1 1 1 1 1 1 
1 1 1 1 1 1 1 1 1 
1 1 1 1 1 1 1 1 1 
1 1 1 1 1 1 1 1 1 
1 1 1 1 1 1 1 1 1 
1 1 1 1 1 1 1 1 1 
1 1 1 1 1 1 1 1 1 
1 1 1 1 1 1 1 1 1 
1 1 1 1 1 1 1 1 1 
1 1 1 1 1 1 1 1 1 
1 1 1 1 1 1 1 1 1 
1 1 1 1 1 1 1 1 1 
1 1 1 1 1 1 1 1 1 
1 1 1 1 1 1 1 1 1 
1 1 1 1 1 1 1 1 1 
1 1 1 1 1 1 1 1 1 
1 1 1 1 1 1 1 1 1 
1 1 1 1 1 1 1 1 1 
1 1 1 1 1 1 1 1 1 
1 1 1 1 1 1 1 1 1 
1 1 1 1 1 1 1 1 1 
1 1 1 1 1 1 1 1 1 
1 1 1 1 1 1 1 1 1 
1 1 1 1 1 1 1 1 1 
1 1 1 1 1 1 1 1 1 
1 1 1 1 1 1 1 1 1 
1 1 1 1 1 1 1 1 1 
1 1 1 1 1 1 1 1 1 
1 1 1 1 1 1 1 1 1 
1 1 1 1 1 1 1 1 1 
1 1 1 1 1 1 1 1 1 
1 1 1 1 1 1 1 1 1 
1 1 1 1 1 1 1 1 1 
1 1 1 1 1 1 1 1 1 
1 1 1 1 1 1 1 1 1 
1 1 1 1 1 1 1 1 1 
1 1 1 1 1 1 1 1 1 
1 1 1 1 1 1 1 1 1 
1 1 1 1 1 1 1 1 1 
1 1 1 1 1 1 1 1 1 
1 1 1 1 1 1 1 1 1 
1 1 1 1 1 1 1 1 1 
1 1 1 1 1 1 1 1 1 
1 1 1 1 1 1 1 1 1 
1 1 1 1 1 1 1 1 1 
1 1 1 1 1 1 1 1 1 
1 1 1 1 1 1 1 1 1 
1 1 1 1 1 1 1 1 1 
1 1 1 1 1 1 1 1 1 
1 1 1 1 1 1 1 1 1 
1 1 1 1 1 1 1 1 1 
1 1 1 1 1 1 1 1 1 
1 1 1 1 1 1 1 1 1 
1 1 1 1 1 1 1 1 1 
1 1 1 1 1 1 1 1 1 
1 1 1 1 1 1 1 1 1 
1 1 1 1 1 1 1 1 1 
1 1 1 1 1 1 1 1 1 
1 1 1 1 1 1 1 1 1 
1 1 1 1 1 1 1 1 1 
1 1 1 1 1 1 1 1 1 
1 1 1 1 1 1 1 1 1 
1 1 1 1 1 1 1 1 1 
1 1 1 1 1 1 1 1 1 
1 1 1 1 1 1 1 1 1 
1 1 1 1 1 1 1 1 1 
1 1 1 1 1 1 1 1 1 
1 1 1 1 1 1 1 1 1 
1 1 1 1 1 1 1 1 1 
1 1 1 1 1 1 1 1 1 
1 1 1 1 1 1 1 1 1 
1 1 1 1 1 1 1 1 1 
1 1 1 1 1 1 1 1 1 
1 1 1 1 1 1 1 1 1 
1 1 1 1 1 1 1 1 1 
1 1 1 1 1 1 1 1 1 
1 1 1 1 1 1 1 1 1 
1 1 1 1 1 1 1 1 1 
1 1 1 1 1 1 1 1 1 
1 1 1 1 1 1 1 1 1 
1 1 1 1 1 1 1 1 1 
1 1 1 1 1 1 1 1 1 
1 1 1 1 1 1 1 1 1 
1 1 1 1 1 1 1 1 1 
1 1 1 1 1 1 1 1 1 
1 1 1 1 1 1 1 1 1 
1 1 1 1 1 1 1 1 1 
1 1 1 1 1 1 1 1 1 
1 1 1 1 1 1 1 1 1 
1 1 1 1 1 1 1 1 1 
1 1 1 1 1 1 1 1 1 
1 1 1 1 1 1 1 1 1 
1 1 1 1 1 1 1 1 1 
1 1 1 1 1 1 1 1 1 
1 1 1 1 1 1 1 1 1 
1 1 1 1 1 1 1 1 1 
1 1 1 1 1 1 1 1 1 
1 1 1 1 1 1 1 1 1 
1 1 1 1 1 1 1 1 1 
1 1 1 1 1 1 1 1 1 
1 1 1 1 1 1 1 1 1 
1 1 1 1 1 1 1 1 1 
1 1 1 1 1 1 1 1 1 
1 1 1 1 1 1 1 1 1 
1 1 1 1 1 1 1 1 1 
1 1 1 1 1 1 1 1 1 
1 1 1 1 1 1 1 1 1 
1 1 1 1 1 1 1 1 1 
1 1 1 1 1 1 1 1 1 
1 1 1 1 1 1 1 1 1 
1 1 1 1 1 1 1 1 1 
1 1 1 1 1 1 1 1 1 
1 1 1 1 1 1 1 1 1 
1 1 1 1 1 1 1 1 1 
1 1 1 1 1 1 1 1 1 
1 1 1 1 1 1 1 1 1 
1 1 1 1 1 1 1 1 1 
1 1 1 1 1 1 1 1 1 
1 1 1 1 1 1 1 1 1 
1 1 1 1 1 1 1 1 1 
1 1 1 1 1 1 1 1 1 
1 1 1 1 1 1 1 1 1 
1 1 1 1 1 1 1 1 1 
1 1 1 1 1 1 1 1 1 
1 1 1 1 1 1 1 1 1 
1 1 1 1 1 1 1 1 1 
1 1 1 1 1 1 1 1 1 
1 1 1 1 1 1 1 1 1 
1 1 1 1 1 1 1 1 1 
1 1 1 1 1 1 1 1 1 
1 1 1 1 1 1 1 1 1 
1 1 1 1 1 1 1 1 1 
1 1 1 1 1 1 1 1 1 
1 1 1 1 1 1 1 1 1 
1 1 1 1 1 1 1 1 1 
1 1 1 1 1 1 1 1 1 
1 1 1 1 1 1 1 1 1 
1 1 1 1 1 1 1 1 1 
1 1 1 1 1 1 1 1 1 
1 1 1 1 1 1 1 1 1 
1 1 1 1 1 1 1 1 1 
1 1 1 1 1 1 1 1 1 
1 1 1 1 1 1 1 1 1 
1 1 1 1 1 1 1 1 1 
1 1 1 1 1 1 1 1 1 
1 1 1 1 1 1 1 1 1 
1 1 1 1 1 1 1 1 1 
1 1 1 1 1 1 1 1 1 
1 1 1 1 1 1 1 1 1 
1 1 1 1 1 1 1 1 1 
1 1 1 1 1 1 1 1 1 
1 1 1 1 1 1 1 1 1 
1 1 1 1 1 1 1 1 1 
1 1 1 1 1 1 1 1 1 
1 1 1 1 1 1 1 1 1 
1 1 1 1 1 1 1 1 1 
1 1 1 1 1 1 1 1 1 
1 1 1 1 1 1 1 1 1 
1 1 1 1 1 1 1 1 1 
1 1 1 1 1 1 1 1 1 
1 1 1 1 1 1 1 1 1 
1 1 1 1 1 1 1 1 1 
1 1 1 1 1 1 1 1 1 
1 1 1 1 1 1 1 1 1 
1 1 1 1 1 1 1 1 1 
1 1 1 1 1 1 1 1 1 
1 1 1 1 1 1 1 1 1 
1 1 1 1 1 1 1 1 1 
1 1 1 1 1 1 1 1 1 
1 1 1 1 1 1 1 1 1 
1 1 1 1 1 1 1 1 1 
1 1 1 1 1 1 1 1 1 
1 1 1 1 1 1 1 1 1 
1 1 1 1 1 1 1 1 1 
1 1 1 1 1 1 1 1 1 
1 1 1 1 1 1 1 1 1 
1 1 1 1 1 1 1 1 1 
1 1 1 1 1 1 1 1 1 
1 1 1 1 1 1 1 1 1 
1 1 1 1 1 1 1 1 1 
1 1 1 1 1 1 1 1 1 
1 1 1 1 1 1 1 1 1 
1 1 1 1 1 1 1 1 1 
1 1 1 1 1 1 1 1 1 
1 1 1 1 1 1 1 1 1 
1 1 1 1 1 1 1 1 1 
1 1 1 1 1 1 1 1 1 
1 1 1 1 1 1 1 1 1 
1 1 1 1 1 1 1 1 1 
1 1 1 1 1 1 1 1 1 
1 1 1 1 1 1 1 1 1 
1 1 1 1 1 1 1 1 1 
1 1 1 1 1 1 1 1 1 
1 1 1 1 1 1 1 1 1 
1 1 1 1 1 1 1 1 1 
1 1 1 1 1 1 1 1 1 
1 1 1 1 1 1 1 1 1 
1 1 1 1 1 1 1 1 1 
1 1 1 1 1 1 1 1 1 
1 1 1 1 1 1 1 1 1 
1 1 1 1 1 1 1 1 1 
1 1 1 1 1 1 1 1 1 
1 1 1 1 1 1 1 1 1 
1 1 1 1 1 1 1 1 1 
1 1 1 1 1 1 1 1 1 
1 1 1 1 1 1 1 1 1 
1 1 1 1 1 1 1 1 1 
1 1 1 1 1 1 1 1 1 
1 1 1 1 1 1 1 1 1 
1 1 1 1 1 1 1 1 1 
1 1 1 1 1 1 1 1 1 
1 1 1 1 1 1 1 1 1 
1 1 1 1 1 1 1 1 1 
1 1 1 1 1 1 1 1 1 
1 1 1 1 1 1 1 1 1 
1 1 1 1 1 1 1 1 1 
1 1 1 1 1 1 1 1 1 
1 1 1 1 1 1 1 1 1 
1 1 1 1 1 1 1 1 1 
1 1 1 1 1 1 1 1 1 
1 1 1 1 1 1 1 1 1 
1 1 1 1 1 1 1 1 1 
1 1 1 1 1 1 1 1 1 
1 1 1 1 1 1 1 1 1 
1 1 1 1 1 1 1 1 1 
1 1 1 1 1 1 1 1 1 
1 1 1 1 1 1 1 1 1 
1 1 1 1 1 1 1 1 1 
1 1 1 1 1 1 1 1 1 
1 1 1 1 1 1 1 1 1 
1 1 1 1 1 1 1 1 1 
1 1 1 1 1 1 1 1 1 
1 1 1 1 1 1 1 1 1 
1 1 1 1 1 1 1 1 1 
1 1 1 1 1 1 1 1 1 
1 1 1 1 1 1 1 1 1 
1 1 1 1 1 1 1 1 1 
1 1 1 1 1 1 1 1 1 
1 1 1 1 1 1 1 1 1 
1 1 1 1 1 1 1 1 1 
1 1 1 1 1 1 1 1 1 
1 1 
NORMALS normals float
-0.015148 -0.015148 -0.999771 -0.0107131 -0.707066 -0.707066 -0.707066 -0.0107131 -0.707066 
0.0151498 0 -0.999885 0.0107946 -0.701648 -0.712442 0.707107 0 -0.707107 
0 0 -1 -0.57439 -0.57439 -0.583226 0.57439 0.57439 -0.583226 
0.580266 0.571474 -0.580266 -0.0151498 0 -0.999885 -0.580266 -0.571474 -0.580266 
-0.580266 -0.571474 -0.580266 0.015148 0.015148 -0.999771 0.707066 0.0107131 -0.707066 
0 -0.0151498 -0.999885 -0.571474 -0.580266 -0.580266 -0.701648 -0.0107946 -0.712442 
0.568423 0.577305 -0.586186 0.577305 0.568423 -0.586186 0.0107131 0.707066 -0.707066 
0 0 -1 -0.701689 0 -0.712484 0.701689 0 -0.712484 
0 0.0151498 -0.999885 -0.701648 0.0107946 -0.712442 0.701648 0.0107946 -0.712442 
0 0.707107 -0.707107 -0.015148 -0.015148 -0.999771 -0.0107131 -0.707066 -0.707066 
-0.707066 -0.0107131 -0.707066 0 0 -1 0 -0.701689 -0.712484 
0.015148 -0.015148 -0.999771 0.0107131 -0.707066 -0.707066 0.707066 -0.0107131 -0.707066 
0 0.0151498 -0.999885 -0.701648 0.0107946 -0.712442 0 0.707107 -0.707107 
0 0.701689 -0.712484 0 0.701689 -0.712484 0 0 -1 
0.57439 -0.57439 -0.583226 0 0.707107 -0.707107 -0.0151498 0 -0.999885 
-0.707107 0 -0.707107 0.57439 -0.57439 -0.583226 0 0 -1 
0.0151498 0 -0.999885 0.0107946 -0.701648 -0.712442 0.999885 0 -0.0151498 
0 0.0151498 -0.999885 -0.701648 0.0107946 -0.712442 0.571474 0.580266 -0.580266 
0.57439 0.57439 -0.583226 0.0107946 0.701648 -0.712442 0 0.707107 -0.707107 
-0.015148 -0.015148 -0.999771 -0.015148 -0.999771 -0.015148 -0.999771 -0.015148 -0.015148 
0.015381 -0.015381 -0.999763 0.0151498 -0.999885 0 0.999885 -0.0151498 0 
-0.0151498 0 -0.999885 -0.999885 0 -0.0151498 0.0151498 0 -0.999885 
0.712442 -0.701648 -0.0107946 -0.0151498 0 -0.999885 -0.999885 0 -0.0151498 
0 0 -1 0.701648 -0.712442 -0.0107946 0 -0.0151498 -0.999885 
0.015381 -0.015381 -0.999763 0.0151498 -0.999885 0 0.999885 -0.0151498 0 
-0.0151498 0 -0.999885 -0.999885 0 -0.0151498 0 0 -1 
0 0 -1 0.0151498 0 -0.999885 0.999885 0 -0.0151498 
-0.0151498 0 -0.999885 -0.999885 0 -0.0151498 0 0 -1 
0 0 -1 0.0151498 0 -0.999885 0.999885 0 -0.0151498 
-0.0151498 0 -0.999885 -0.999885 0 -0.0151498 0 0 -1 
0 0 -1 0.0151498 0 -0.999885 0.999885 0 -0.0151498 
-0.0151498 0 -0.999885 -0.999885 0 -0.0151498 0 -0.701689 -0.712484 
0 -0.701689 -0.712484 0.0151498 0 -0.999885 0.999885 0 -0.0151498 
-0.015148 -0.015148 -0.999771 -0.015148 -0.999771 -0.015148 -0.707066 -0.0107131 -0.707066 
0.0151498 0 -0.999885 0.015381 -0.999763 -0.015381 0.999885 0 -0.0151498 
-0.707107 0 -0.707107 -0.999885 0 -0.0151498 0.707107 0 -0.707107 
0.580266 -0.571474 -0.580266 0 0.0151498 -0.999885 -0.701648 0.0107946 -0.712442 
0.701648 0.712442 -0.0107946 0.712442 0.701648 -0.0107946 -0.580266 -0.571474 -0.580266 
-0.712442 -0.701648 -0.0107946 0.57439 0.57439 -0.583226 0 0 -1 
0.571474 -0.580266 -0.580266 0 -0.0151498 -0.999885 0.015148 -0.015148 -0.999771 
0.0107131 -0.707066 -0.707066 0.999771 -0.015148 -0.015148 0 0.999885 -0.0151498 
-0.57735 -0.57735 -0.57735 -0.707066 -0.707066 -0.0107131 -0.707066 -0.707066 -0.0107131 
0.701689 0 -0.712484 0 0 -1 0 0 -1 
0.0151498 0 -0.999885 0.999885 0 -0.0151498 -0.707066 -0.0107131 -0.707066 
-0.707066 -0.707066 -0.0107131 -0.999771 -0.015148 -0.015148 0.57439 0.57439 -0.583226 
0 0.701689 -0.712484 0 0 -1 0 0 -1 
0 0 -1 0.0151498 0 -0.999885 0.999885 0 -0.0151498 
-0.707107 0 -0.707107 -0.999885 0 -0.0151498 0.701689 0 -0.712484 
0 0 -1 0 0 -1 0 0 -1 
0 0 -1 0.0151498 0 -0.999885 0.580266 -0.571474 -0.580266 
-0.707107 0 -0.707107 -0.999885 0 -0.0151498 0.701689 0 -0.712484 
0 0 -1 0 0 -1 0 0 -1 
0 0 -1 0 0 -1 0.571474 -0.580266 -0.580266 
0 -0.0151498 -0.999885 0.015148 -0.015148 -0.999771 0.0107131 -0.707066 -0.707066 
0.999771 -0.015148 -0.015148 -0.015148 0.015148 -0.999771 -0.999771 0.015148 -0.015148 
0 0.707107 -0.707107 0 0 -1 0 0 -1 
0 0 -1 0 0 -1 0 0 -1 
0 0 -1 0 0 -1 0.0151498 0 -0.999885 
0.999885 0 -0.0151498 -0.015148 0.999771 -0.015148 -0.571474 0.580266 -0.580266 
-0.580266 0.571474 -0.580266 -0.0151498 0 -0.999885 0 0 -1 
0 0 -1 0 -0.701689 -0.712484 0 -0.701689 -0.712484 
0 -0.701689 -0.712484 0 0 -1 0.0151498 0 -0.999885 
0.999885 0 -0.0151498 -0.015148 0.015148 -0.999771 -0.999771 0.015148 -0.015148 
0 0.0151498 -0.999885 -0.701689 0 -0.712484 0.701689 0 -0.712484 
0.0151498 0 -0.999885 0.999885 0 -0.0151498 -0.015148 0.999771 -0.015148 
-0.571474 0.580266 -0.580266 -0.580266 0.571474 -0.580266 -0.707107 0 -0.707107 
0 0.701689 -0.712484 0.57439 -0.57439 -0.583226 0.0107946 -0.701648 -0.712442 
0.999885 0 -0.0151498 -0.015148 0.015148 -0.999771 -0.999771 0.015148 -0.015148 
0 0.707107 -0.707107 -0.701689 0 -0.712484 0.583226 -0.57439 -0.57439 
-0.015148 0.999771 -0.015148 -0.571474 0.580266 -0.580266 -0.580266 0.571474 -0.580266 
-0.707107 0 -0.707107 0.57439 0.57439 -0.583226 0 0.701689 -0.712484 
0.571474 -0.580266 -0.580266 0 -0.0151498 -0.999885 0.015148 -0.015148 -0.999771 
0.0107131 -0.707066 -0.707066 0.999771 -0.015148 -0.015148 -0.015148 0.015148 -0.999771 
-0.999771 0.015148 -0.015148 0 0.707107 -0.707107 0 0.0151498 -0.999885 
0 0.0151498 -0.999885 0 0 -1 0.0151498 0 -0.999885 
0.999885 0 -0.0151498 -0.015148 0.999771 -0.015148 0 0.999885 -0.0151498 
0 0.999885 -0.0151498 -0.571474 0.580266 -0.580266 -0.580266 0.571474 -0.580266 
-0.0151498 0 -0.999885 0.015148 0.015148 -0.999771 0.999771 0.015148 -0.015148 
0 0.0151498 -0.999885 -0.999763 0.015381 -0.015381 0.701648 0.712442 -0.0107946 
0.707066 0.707066 -0.0107131 0 0.999885 -0.0151498 0 -0.999885 0.0151498 
-0.999763 -0.015381 0.015381 0.580266 -0.580266 0.571474 0.571474 -0.580266 0.580266 
-0.999885 0 0.0151498 0.57735 -0.57735 0.57735 0.707066 -0.707066 0.0107131 
-1 0 0 0.707066 -0.707066 0.0107131 0.580266 -0.580266 0.571474 
0.57735 -0.57735 0.57735 -1 0 0 0.57735 -0.57735 0.57735 
0.999771 -0.015148 0.015148 -1 0 0 0.712484 0 -0.701689 
-1 0 0 0.712484 0 -0.701689 -0.015148 -0.015148 -0.999771 
-0.0107131 -0.707066 -0.707066 -0.707066 -0.0107131 -0.707066 0 0 -1 
0 -0.701689 -0.712484 0 0 -1 0 -0.701689 -0.712484 
0 0 -1 0 -0.701689 -0.712484 0.0151498 0 -0.999885 
0.0107946 -0.701648 -0.712442 0.999885 0 -0.0151498 -1 0 0 
0.583226 -0.57439 -0.57439 0 0 -1 -0.57439 -0.57439 -0.583226 
0.57439 0.57439 -0.583226 0.57439 0.57439 -0.583226 0 0.701689 -0.712484 
0 0.701689 -0.712484 0.0107946 0.701648 -0.712442 -0.707066 -0.0107131 -0.707066 
-0.015148 -0.999771 -0.015148 -0.707066 -0.0107131 -0.707066 0 -1 0 
0.0153828 -0.999882 0 1 0 0 -1 0 0 
0.571474 -0.580266 -0.580266 0.571474 -0.580266 -0.580266 0 -0.707107 -0.707107 
0 -0.707107 -0.707107 0 0 -1 0 -0.701689 -0.712484 
0 0 -1 0 -0.701689 -0.712484 0 0 -1 
0 -0.701689 -0.712484 0 0 -1 0 -0.701689 -0.712484 
0 0 -1 0 -0.701689 -0.712484 0 0 -1 