# vtk DataFile Version 3.0
vtk output
ASCII
DATASET POLYDATA
POINTS 8008 float
44 115 55.0123 44 114.012 56 43.0123 115 56 
44.9877 115 56 43 116 55.0123 43 115.012 56 
42.0123 116 56 44 116 55.0123 45 115.012 56 
45 116 55.0123 46 116 55.0123 46 115.012 56 
46.9877 116 56 43 117 55.0123 42.0123 117 56 
44 117 55.0123 45 117 55.0123 46 117 55.0123 
46.9877 117 56 43 117.988 56 44 117.988 56 
44.0123 118 56 45 118 55.0123 46 118 55.0123 
46.9877 118 56 45 119 55.0123 44.0123 119 56 
46 119 55.0123 46.9877 119 56 45 120 55.0123 
44.0123 120 56 46 120 55.0123 46.9877 120 56 
45 121 55.0123 44.0123 121 56 45.9877 121 56 
46 120.988 56 45 121.988 56 44 114.012 57 
43.0123 115 57 45 115 56.0123 45 114.012 57 
45.9877 115 57 43 115.012 57 42.0123 116 57 
46 115.012 57 46.9877 116 57 42.0123 117 57 
46.9877 117 57 43 117.988 57 44 118 56.0123 
43.0123 118 57 46.9877 118 57 44 119 56.0123 
43.0123 119 57 46.9877 119 57 44 120 56.0123 
43.0123 120 57 46.9877 120 57 44 121 56.0123 
43.0123 121 57 46 121 56.0123 46.9877 121 57 
44 121.988 57 45 121.988 57 46 122 56.0123 
45.0123 122 57 46.9877 122 57 46 123 56.0123 
45.0123 123 57 46.9877 123 57 46 124 56.0123 
45.0123 124 57 46.9877 124 57 44 125 56.0123 
44 124.012 57 43.0123 125 57 45 125 56.0123 
45 124.012 57 46 125 56.0123 47 124.012 57 
47 125 56.0123 48 125 56.0123 48 124.012 57 
49 125 56.0123 49 124.012 57 49.9877 125 57 
44 126 56.0123 43.0123 126 57 44.9877 126 57 
45 125.988 57 46 125.988 57 47 125.988 57 
48 125.988 57 49 125.988 57 40 127 56.0123 
40 126.012 57 39.0123 127 57 41 127 56.0123 
41 126.012 57 42 127 56.0123 42 126.012 57 
43 127 56.0123 43 126.012 57 44 127 56.0123 
44.9877 127 57 40 128 56.0123 39.0123 128 57 
40.9877 128 57 41 127.988 57 42 127.988 57 
43 127.988 57 44 127.988 57 36 129 56.0123 
36 128.012 57 35.0123 129 57 37 129 56.0123 
37 128.012 57 38 129 56.0123 38 128.012 57 
39 129 56.0123 39 128.012 57 40 129 56.0123 
40.9877 129 57 36 130 56.0123 35.0123 130 57 
36.9877 130 57 37 129.988 57 38 129.988 57 
39 129.988 57 40 129.988 57 36 130.988 57 
45 114 57.0123 45 113.012 58 44.0123 114 58 
46 114 57.0123 46 113.012 58 46.9877 114 58 
44 114.012 58 43.0123 115 58 46 115 57.0123 
46.9877 115 58 43 115.012 58 42.0123 116 58 
46.9877 116 58 42 117 57.0123 42 116.012 58 
41.0123 117 58 46.9877 117 58 41 118 57.0123 
41 117.012 58 40.0123 118 58 42 118 57.0123 
43 118 57.0123 47 117.012 58 47 118 57.0123 
48 118 57.0123 48 117.012 58 48.9877 118 58 
40 119 57.0123 40 118.012 58 39.0123 119 58 
41 119 57.0123 42 119 57.0123 43 119 57.0123 
47 119 57.0123 48 119 57.0123 48.9877 119 58 
39 120 57.0123 39 119.012 58 38.0123 120 58 
40 120 57.0123 41 120 57.0123 42 120 57.0123 
43 120 57.0123 47 120 57.0123 48 120 57.0123 
49 119.012 58 49 120 57.0123 50 120 57.0123 
50 119.012 58 50.9877 120 58 38 121 57.0123 
38 120.012 58 37.0123 121 58 39 121 57.0123 
40 121 57.0123 41 121 57.0123 42 121 57.0123 
43 121 57.0123 47 121 57.0123 48 121 57.0123 
49 121 57.0123 50 121 57.0123 50.9877 121 58 
35 122 57.0123 35 121.012 58 34.0123 122 58 
36 122 57.0123 36 121.012 58 37 122 57.0123 
37 121.012 58 38 122 57.0123 39 122 57.0123 
40 122 57.0123 41 122 57.0123 42 122 57.0123 
43 122 57.0123 44 122 57.0123 45 122 57.0123 
47 122 57.0123 48 122 57.0123 49 122 57.0123 
50 122 57.0123 50.9877 122 58 34 123 57.0123 
34 122.012 58 33.0123 123 58 35 123 57.0123 
36 123 57.0123 37 123 57.0123 38 123 57.0123 
39 123 57.0123 40 123 57.0123 41 123 57.0123 
42 123 57.0123 43 123 57.0123 44 123 57.0123 
45 123 57.0123 47 123 57.0123 48 123 57.0123 
49 123 57.0123 50 123 57.0123 50.9877 123 58 
31 124 57.0123 31 123.012 58 30.0123 124 58 
32 124 57.0123 32 123.012 58 33 124 57.0123 
33 123.012 58 34 124 57.0123 35 124 57.0123 
36 124 57.0123 37 124 57.0123 38 124 57.0123 
39 124 57.0123 40 124 57.0123 41 124 57.0123 
42 124 57.0123 43 124 57.0123 44 124 57.0123 
45 124 57.0123 47 124 57.0123 48 124 57.0123 
49 124 57.0123 50 124 57.0123 50.9877 124 58 
30 125 57.0123 30 124.012 58 29.0123 125 58 
31 125 57.0123 32 125 57.0123 33 125 57.0123 
34 125 57.0123 35 125 57.0123 36 125 57.0123 
37 125 57.0123 38 125 57.0123 39 125 57.0123 
40 125 57.0123 41 125 57.0123 42 125 57.0123 
43 125 57.0123 50 125 57.0123 50.9877 125 58 
27 126 57.0123 27 125.012 58 26.0123 126 58 
28 126 57.0123 28 125.012 58 29 126 57.0123 
29 125.012 58 30 126 57.0123 31 126 57.0123 
32 126 57.0123 33 126 57.0123 34 126 57.0123 
35 126 57.0123 36 126 57.0123 37 126 57.0123 
38 126 57.0123 39 126 57.0123 40 126 57.0123 
41 126 57.0123 42 126 57.0123 43 126 57.0123 
45 126 57.0123 46 126 57.0123 47 126 57.0123 
48 126 57.0123 49 126 57.0123 50 126 57.0123 
50.9877 126 58 27 127 57.0123 26.0123 127 58 
28 127 57.0123 29 127 57.0123 30 127 57.0123 
31 127 57.0123 32 127 57.0123 33 127 57.0123 
34 127 57.0123 35 127 57.0123 36 127 57.0123 
37 127 57.0123 38 127 57.0123 39 127 57.0123 
45 127 57.0123 46 127 57.0123 47 127 57.0123 
48 127 57.0123 49 127 57.0123 49.9877 127 58 
50 126.988 58 27 127.988 58 28 127.988 58 
28.0123 128 58 29 128 57.0123 30 128 57.0123 
31 128 57.0123 32 128 57.0123 33 128 57.0123 
34 128 57.0123 35 128 57.0123 36 128 57.0123 
37 128 57.0123 38 128 57.0123 39 128 57.0123 
41 128 57.0123 42 128 57.0123 43 128 57.0123 
44 128 57.0123 45 128 57.0123 46 128 57.0123 
47 128 57.0123 48 128 57.0123 48.9877 128 58 
49 127.988 58 29 129 57.0123 28.0123 129 58 
30 129 57.0123 31 129 57.0123 32 129 57.0123 
33 129 57.0123 34 129 57.0123 35 129 57.0123 
41 129 57.0123 42 129 57.0123 43 129 57.0123 
44 129 57.0123 45 129 57.0123 46 129 57.0123 
47 129 57.0123 48 129 57.0123 48.9877 129 58 
29 130 57.0123 28.0123 130 58 30 130 57.0123 
31 130 57.0123 32 130 57.0123 33 130 57.0123 
34 130 57.0123 35 130 57.0123 37 130 57.0123 
38 130 57.0123 39 130 57.0123 40 130 57.0123 
41 130 57.0123 42 130 57.0123 43 130 57.0123 
44 130 57.0123 45 130 57.0123 46 130 57.0123 
47 130 57.0123 48 130 57.0123 48.9877 130 58 
29 131 57.0123 28.0123 131 58 30 131 57.0123 
31 131 57.0123 32 131 57.0123 33 131 57.0123 
34 131 57.0123 35 131 57.0123 36 131 57.0123 
37 131 57.0123 38 131 57.0123 39 131 57.0123 
40 131 57.0123 41 131 57.0123 42 131 57.0123 
43 131 57.0123 44 131 57.0123 45 131 57.0123 
46 131 57.0123 47 131 57.0123 47.9877 131 58 
48 130.988 58 29 131.988 58 30 131.988 58 
31 131.988 58 32 131.988 58 33 131.988 58 
34 131.988 58 35 131.988 58 36 131.988 58 
37 131.988 58 38 131.988 58 39 131.988 58 
40 131.988 58 41 131.988 58 42 131.988 58 
43 131.988 58 44 131.988 58 45 131.988 58 
46 131.988 58 47 131.988 58 44 111 58.0123 
44 110.012 59 43.0123 111 59 44.9877 111 59 
44 112 58.0123 43.0123 112 59 44.9877 112 59 
44 113 58.0123 43.0123 113 59 45 112.012 59 
45 113 58.0123 45.9877 113 59 44 114 58.0123 
43.0123 114 59 46 113.012 59 46.9877 114 59 
42 115 58.0123 42 114.012 59 41.0123 115 59 
43 115 58.0123 43 114.012 59 46.9877 115 59 
42 116 58.0123 41.0123 116 59 46.9877 116 59 
40 117 58.0123 40 116.012 59 39.0123 117 59 
41 117 58.0123 41 116.012 59 46.9877 117 59 
40 118 58.0123 39.0123 118 59 47 117.012 59 
48 117.012 59 48.9877 118 59 38 119 58.0123 
38 118.012 59 37.0123 119 59 39 119 58.0123 
39 118.012 59 49 118.012 59 49 119 58.0123 
50 119 58.0123 50 118.012 59 50.9877 119 59 
38 120 58.0123 37.0123 120 59 50.9877 120 59 
35 121 58.0123 35 120.012 59 34.0123 121 59 
36 121 58.0123 36 120.012 59 37 121 58.0123 
37 120.012 59 50.9877 121 59 34 122 58.0123 
34 121.012 59 33.0123 122 59 50.9877 122 59 
32 123 58.0123 32 122.012 59 31.0123 123 59 
33 123 58.0123 33 122.012 59 50.9877 123 59 
31 123.012 59 30.0123 124 59 50.9877 124 59 
30 124.012 59 29.0123 125 59 50.9877 125 59 
27 125.012 59 26.0123 126 59 28 125.012 59 
29 125.012 59 50.9877 126 59 27 126.988 59 
27 127 58.9877 27.0123 127 59 49.9877 127 59 
50 126.988 59 28 127.988 59 28.0123 128 59 
48.9877 128 59 49 127.988 59 28.0123 129 59 
48.9877 129 59 28.0123 130 59 48.9877 130 59 
29 130.988 59 29 131 58.9877 30 130.988 59 
30 131 58.9877 31 130.988 59 31 131 58.9877 
32 130.988 59 32 131 58.9877 33 130.988 59 
33 131 58.9877 34 130.988 59 34 131 58.9877 
34.0123 131 59 47.9877 131 59 48 130.988 59 
35 131.988 59 36 131.988 59 37 131.988 59 
38 131.988 59 39 131.988 59 40 131.988 59 
41 131.988 59 42 131.988 59 43 131.988 59 
44 131.988 59 45 131.988 59 46 131.988 59 
47 131.988 59 43 110 59.0123 43 109.012 60 
42.0123 110 60 44 110 59.0123 44 109.012 60 
44.9877 110 60 43 111 59.0123 42.0123 111 60 
44.9877 111 60 43 112 59.0123 42.0123 112 60 
45 111.012 60 45 112 59.0123 46 112 59.0123 
46 111.012 60 46.9877 112 60 42 113 59.0123 
42 112.012 60 41.0123 113 60 43 113 59.0123 
46 113 59.0123 46.9877 113 60 41 114 59.0123 
41 113.012 60 40.0123 114 60 42 114 59.0123 
43 114 59.0123 46.9877 114 60 40 115 59.0123 
40 114.012 60 39.0123 115 60 41 115 59.0123 
46.9877 115 60 39 116 59.0123 39 115.012 60 
38.0123 116 60 40 116 59.0123 41 116 59.0123 
46.9877 116 60 38 117 59.0123 38 116.012 60 
37.0123 117 60 39 117 59.0123 46.9877 117 60 
37 118 59.0123 37 117.012 60 36.0123 118 60 
38 118 59.0123 39 118 59.0123 47 117.012 60 
48 117.012 60 49 118 59.0123 49 117.012 60 
50 118 59.0123 50 117.012 60 51 118 59.0123 
51 117.012 60 52 118 59.0123 52 117.012 60 
52.9877 118 60 36 119 59.0123 36 118.012 60 
35.0123 119 60 37 119 59.0123 51 119 59.0123 
52 119 59.0123 52.9877 119 60 35 120 59.0123 
35 119.012 60 34.0123 120 60 36 120 59.0123 
37 120 59.0123 51 120 59.0123 52 120 59.0123 
52.9877 120 60 34 121 59.0123 34 120.012 60 
33.0123 121 60 51 121 59.0123 51.9877 121 60 
52 120.988 60 33 122 59.0123 33 121.012 60 
32.0123 122 60 50.9877 122 60 51 121.988 60 
32 122.012 60 31.0123 123 60 50.9877 123 60 
31 123.012 60 30.0123 124 60 50.9877 124 60 
30 124.012 60 29.0123 125 60 50.9877 125 60 
27 126 59.9877 28 126 59.9877 28.0123 126 60 
29 125.012 60 50.9877 126 60 28 127 59.9877 
28.0123 127 60 49.9877 127 60 50 126.988 60 
28.0123 128 60 48.9877 128 60 49 127.988 60 
28.0123 129 60 48.9877 129 60 29 129.988 60 
[...]
POINT_DATA 8008
SCALARS scalars float
LOOKUP_TABLE default
1 1 1 1 1 1 1 1 1 
1 1 1 1 1 1 1 1 1 
1 1 1 1 1 1 1 1 1 
1 1 1 1 1 1 1 1 1 
1 1 1 1 1 1 1 1 1 
1 1 1 1 1 1 1 1 1 
1 1 1 1 1 1 1 1 1 
1 1 1 1 1 1 1 1 1 
1 1 1 1 1 1 1 1 1 
1 1 1 1 1 1 1 1 1 
1 1 1 1 1 1 1 1 1 
1 1 1 1 1 1 1 1 1 
1 1 1 1 1 1 1 1 1 
1 1 1 1 1 1 1 1 1 
1 1 1 1 1 1 1 1 1 
1 1 1 1 1 1 1 1 1 
1 1 1 1 1 1 1 1 1 
1 1 1 1 1 1 1 1 1 
1 1 1 1 1 1 1 1 1 
1 1 1 1 1 1 1 1 1 
1 1 1 1 1 1 1 1 1 
1 1 1 1 1 1 1 1 1 
1 1 1 1 1 1 1 1 1 
1 1 1 1 1 1 1 1 1 
1 1 1 1 1 1 1 1 1 
1 1 1 1 1 1 1 1 1 
1 1 1 1 1 1 1 1 1 
1 1 1 1 1 1 1 1 1 
1 1 1 1 1 1 1 1 1 
1 1 1 1 1 1 1 1 1 
1 1 1 1 1 1 1 1 1 
1 1 1 1 1 1 1 1 1 
1 1 1 1 1 1 1 1 1 
1 1 1 1 1 1 1 1 1 
1 1 1 1 1 1 1 1 1 
1 1 1 1 1 1 1 1 1 
1 1 1 1 1 1 1 1 1 
1 1 1 1 1 1 1 1 1 
1 1 1 1 1 1 1 1 1 
1 1 1 1 1 1 1 1 1 
1 1 1 1 1 1 1 1 1 
1 1 1 1 1 1 1 1 1 
1 1 1 1 1 1 1 1 1 
1 1 1 1 1 1 1 1 1 
1 1 1 1 1 1 1 1 1 
1 1 1 1 1 1 1 1 1 
1 1 1 1 1 1 1 1 1 
1 1 1 1 1 1 1 1 1 
1 1 1 1 1 1 1 1 1 
1 1 1 1 1 1 1 1 1 
1 1 1 1 1 1 1 1 1 
1 1 1 1 1 1 1 1 1 
1 1 1 1 1 1 1 1 1 
1 1 1 1 1 1 1 1 1 
1 1 1 1 1 1 1 1 1 
1 1 1 1 1 1 1 1 1 
1 1 1 1 1 1 1 1 1 
1 1 1 1 1 1 1 1 1 
1 1 1 1 1 1 1 1 1 
1 1 1 1 1 1 1 1 1 
1 1 1 1 1 1 1 1 1 
1 1 1 1 1 1 1 1 1 
1 1 1 1 1 1 1 1 1 
1 1 1 1 1 1 1 1 1 
1 1 1 1 1 1 1 1 1 
1 1 1 1 1 1 1 1 1 
1 1 1 1 1 1 1 1 1 
1 1 1 1 1 1 1 1 1 
1 1 1 1 1 1 1 1 1 
1 1 1 1 1 1 1 1 1 
1 1 1 1 1 1 1 1 1 
1 1 1 1 1 1 1 1 1 
1 1 1 1 1 1 1 1 1 
1 1 1 1 1 1 1 1 1 
1 1 1 1 1 1 1 1 1 
1 1 1 1 1 1 1 1 1 
1 1 1 1 1 1 1 1 1 
1 1 1 1 1 1 1 1 1 
1 1 1 1 1 1 1 1 1 
1 1 1 1 1 1 1 1 1 
1 1 1 1 1 1 1 1 1 
1 1 1 1 1 1 1 1 1 
1 1 1 1 1 1 1 1 1 
1 1 1 1 1 1 1 1 1 
1 1 1 1 1 1 1 1 1 
1 1 1 1 1 1 1 1 1 
1 1 1 1 1 1 1 1 1 
1 1 1 1 1 1 1 1 1 
1 1 1 1 1 1 1 1 1 
1 1 1 1 1 1 1 1 1 
1 1 1 1 1 1 1 1 1 
1 1 1 1 1 1 1 1 1 
1 1 1 1 1 1 1 1 1 
1 1 1 1 1 1 1 1 1 
1 1 1 1 1 1 1 1 1 
1 1 1 1 1 1 1 1 1 
1 1 1 1 1 1 1 1 1 
1 1 1 1 1 1 1 1 1 
1 1 1 1 1 1 1 1 1 
1 1 1 1 1 1 1 1 1 
1 1 1 1 1 1 1 1 1 
1 1 1 1 1 1 1 1 1 
1 1 1 1 1 1 1 1 1 
1 1 1 1 1 1 1 1 1 
1 1 1 1 1 1 1 1 1 
1 1 1 1 1 1 1 1 1 
1 1 1 1 1 1 1 1 1 
1 1 1 1 1 1 1 1 1 
1 1 1 1 1 1 1 1 1 
1 1 1 1 1 1 1 1 1 
1 1 1 1 1 1 1 1 1 
1 1 1 1 1 1 1 1 1 
1 1 1 1 1 1 1 1 1 
1 1 1 1 1 1 1 1 1 
1 1 1 1 1 1 1 1 1 
1 1 1 1 1 1 1 1 1 
1 1 1 1 1 1 1 1 1 
1 1 1 1 1 1 1 1 1 
1 1 1 1 1 1 1 1 1 
1 1 1 1 1 1 1 1 1 
1 1 1 1 1 1 1 1 1 
1 1 1 1 1 1 1 1 1 
1 1 1 1 1 1 1 1 1 
1 1 1 1 1 1 1 1 1 
1 1 1 1 1 1 1 1 1 
1 1 1 1 1 1 1 1 1 
1 1 1 1 1 1 1 1 1 
1 1 1 1 1 1 1 1 1 
1 1 1 1 1 1 1 1 1 
1 1 1 1 1 1 1 1 1 
1 1 1 1 1 1 1 1 1 
1 1 1 1 1 1 1 1 1 
1 1 1 1 1 1 1 1 1 
1 1 1 1 1 1 1 1 1 
1 1 1 1 1 1 1 1 1 
1 1 1 1 1 1 1 1 1 
1 1 1 1 1 1 1 1 1 
1 1 1 1 1 1 1 1 1 
1 1 1 1 1 1 1 1 1 
1 1 1 1 1 1 1 1 1 
1 1 1 1 1 1 1 1 1 
1 1 1 1 1 1 1 1 1 
1 1 1 1 1 1 1 1 1 
1 1 1 1 1 1 1 1 1 
1 1 1 1 1 1 1 1 1 
1 1 1 1 1 1 1 1 1 
1 1 1 1 1 1 1 1 1 
1 1 1 1 1 1 1 1 1 
1 1 1 1 1 1 1 1 1 
1 1 1 1 1 1 1 1 1 
1 1 1 1 1 1 1 1 1 
1 1 1 1 1 1 1 1 1 
1 1 1 1 1 1 1 1 1 
1 1 1 1 1 1 1 1 1 
1 1 1 1 1 1 1 1 1 
1 1 1 1 1 1 1 1 1 
1 1 1 1 1 1 1 1 1 
1 1 1 1 1 1 1 1 1 
1 1 1 1 1 1 1 1 1 
1 1 1 1 1 1 1 1 1 
1 1 1 1 1 1 1 1 1 
1 1 1 1 1 1 1 1 1 
1 1 1 1 1 1 1 1 1 
1 1 1 1 1 1 1 1 1 
1 1 1 1 1 1 1 1 1 
1 1 1 1 1 1 1 1 1 
1 1 1 1 1 1 1 1 1 
1 1 1 1 1 1 1 1 1 
1 1 1 1 1 1 1 1 1 
1 1 1 1 1 1 1 1 1 
1 1 1 1 1 1 1 1 1 
1 1 1 1 1 1 1 1 1 
1 1 1 1 1 1 1 1 1 
1 1 1 1 1 1 1 1 1 
1 1 1 1 1 1 1 1 1 
1 1 1 1 1 1 1 1 1 
1 1 1 1 1 1 1 1 1 
1 1 1 1 1 1 1 1 1 
1 1 1 1 1 1 1 1 1 
1 1 1 1 1 1 1 1 1 
1 1 1 1 1 1 1 1 1 
1 1 1 1 1 1 1 1 1 
1 1 1 1 1 1 1 1 1 
1 1 1 1 1 1 1 1 1 
1 1 1 1 1 1 1 1 1 
1 1 1 1 1 1 1 1 1 
1 1 1 1 1 1 1 1 1 
1 1 1 1 1 1 1 1 1 
1 1 1 1 1 1 1 1 1 
1 1 1 1 1 1 1 1 1 
1 1 1 1 1 1 1 1 1 
1 1 1 1 1 1 1 1 1 
1 1 1 1 1 1 1 1 1 
1 1 1 1 1 1 1 1 1 
1 1 1 1 1 1 1 1 1 
1 1 1 1 1 1 1 1 1 
1 1 1 1 1 1 1 1 1 
1 1 1 1 1 1 1 1 1 
1 1 1 1 1 1 1 1 1 
1 1 1 1 1 1 1 1 1 
1 1 1 1 1 1 1 1 1 
1 1 1 1 1 1 1 1 1 
1 1 1 1 1 1 1 1 1 
1 1 1 1 1 1 1 1 1 
1 1 1 1 1 1 1 1 1 
1 1 1 1 1 1 1 1 1 
1 1 1 1 1 1 1 1 1 
1 1 1 1 1 1 1 1 1 
1 1 1 1 1 1 1 1 1 
1 1 1 1 1 1 1 1 1 
1 1 1 1 1 1 1 1 1 
1 1 1 1 1 1 1 1 1 
1 1 1 1 1 1 1 1 1 
1 1 1 1 1 1 1 1 1 
1 1 1 1 1 1 1 1 1 
1 1 1 1 1 1 1 1 1 
1 1 1 1 1 1 1 1 1 
1 1 1 1 1 1 1 1 1 
1 1 1 1 1 1 1 1 1 
1 1 1 1 1 1 1 1 1 
1 1 1 1 1 1 1 1 1 
1 1 1 1 1 1 1 1 1 
1 1 1 1 1 1 1 1 1 
1 1 1 1 1 1 1 1 1 
1 1 1 1 1 1 1 1 1 
1 1 1 1 1 1 1 1 1 
1 1 1 1 1 1 1 1 1 
1 1 1 1 1 1 1 1 1 
1 1 1 1 1 1 1 1 1 
1 1 1 1 1 1 1 1 1 
1 1 1 1 1 1 1 1 1 
1 1 1 1 1 1 1 1 1 
1 1 1 1 1 1 1 1 1 
1 1 1 1 1 1 1 1 1 
1 1 1 1 1 1 1 1 1 
1 1 1 1 1 1 1 1 1 
1 1 1 1 1 1 1 1 1 
1 1 1 1 1 1 1 1 1 
1 1 1 1 1 1 1 1 1 
1 1 1 1 1 1 1 1 1 
1 1 1 1 1 1 1 1 1 
1 1 1 1 1 1 1 1 1 
1 1 1 1 1 1 1 1 1 
1 1 1 1 1 1 1 1 1 
1 1 1 1 1 1 1 1 1 
1 1 1 1 1 1 1 1 1 
1 1 1 1 1 1 1 1 1 
1 1 1 1 1 1 1 1 1 
1 1 1 1 1 1 1 1 1 
1 1 1 1 1 1 1 1 1 
1 1 1 1 1 1 1 1 1 
1 1 1 1 1 1 1 1 1 
1 1 1 1 1 1 1 1 1 
1 1 1 1 1 1 1 1 1 
1 1 1 1 1 1 1 1 1 
1 1 1 1 1 1 1 1 1 
1 1 1 1 1 1 1 1 1 
1 1 1 1 1 1 1 1 1 
1 1 1 1 1 1 1 1 1 
1 1 1 1 1 1 1 1 1 
1 1 1 1 1 1 1 1 1 
1 1 1 1 1 1 1 1 1 
1 1 1 1 1 1 1 1 1 
1 1 1 1 1 1 1 1 1 
1 1 1 1 1 1 1 1 1 
1 1 1 1 1 1 1 1 1 
1 1 1 1 1 1 1 1 1 
1 1 1 1 1 1 1 1 1 
1 1 1 1 1 1 1 1 1 
1 1 1 1 1 1 1 1 1 
1 1 1 1 1 1 1 1 1 
1 1 1 1 1 1 1 1 1 
1 1 1 1 1 1 1 1 1 
1 1 1 1 1 1 1 1 1 
1 1 1 1 1 1 1 1 1 
1 1 1 1 1 1 1 1 1 
1 1 1 1 1 1 1 1 1 
1 1 1 1 1 1 1 1 1 
1 1 1 1 1 1 1 1 1 
1 1 1 1 1 1 1 1 1 
1 1 1 1 1 1 1 1 1 
1 1 1 1 1 1 1 1 1 
1 1 1 1 1 1 1 1 1 
1 1 1 1 1 1 1 1 1 
1 1 1 1 1 1 1 1 1 
1 1 1 1 1 1 1 1 1 
1 1 1 1 1 1 1 1 1 
1 1 1 1 1 1 1 1 1 
1 1 1 1 1 1 1 1 1 
1 1 1 1 1 1 1 1 1 
1 1 1 1 1 1 1 1 1 
1 1 1 1 1 1 1 1 1 
1 1 1 1 1 1 1 1 1 
1 1 1 1 1 1 1 1 1 
1 1 1 1 1 1 1 1 1 
1 1 1 1 1 1 1 1 1 
1 1 1 1 1 1 1 1 1 
1 1 1 1 1 1 1 1 1 
1 1 1 1 1 1 1 1 1 
1 1 1 1 1 1 1 1 1 
1 1 1 1 1 1 1 1 1 
1 1 1 1 1 1 1 1 1 
1 1 1 1 1 1 1 1 1 
1 1 1 1 1 1 1 1 1 
1 1 1 1 1 1 1 1 1 
1 1 1 1 1 1 1 1 1 
1 1 1 1 1 1 1 1 1 
1 1 1 1 1 1 1 1 1 
1 1 1 1 1 1 1 1 1 
1 1 1 1 1 1 1 1 1 
1 1 1 1 1 1 1 1 1 
1 1 1 1 1 1 1 1 1 
1 1 1 1 1 1 1 1 1 
1 1 1 1 1 1 1 1 1 
1 1 1 1 1 1 1 1 1 
1 1 1 1 1 1 1 1 1 
1 1 1 1 1 1 1 1 1 
1 1 1 1 1 1 1 1 1 
1 1 1 1 1 1 1 1 1 
1 1 1 1 1 1 1 1 1 
1 1 1 1 1 1 1 1 1 
1 1 1 1 1 1 1 1 1 
1 1 1 1 1 1 1 1 1 
1 1 1 1 1 1 1 1 1 
1 1 1 1 1 1 1 1 1 
1 1 1 1 1 1 1 1 1 
1 1 1 1 1 1 1 1 1 
1 1 1 1 1 1 1 1 1 
1 1 1 1 1 1 1 1 1 
1 1 1 1 1 1 1 1 1 
1 1 1 1 1 1 1 1 1 
1 1 1 1 1 1 1 1 1 
1 1 1 1 1 1 1 1 1 
1 1 1 1 1 1 1 1 1 
1 1 1 1 1 1 1 1 1 
1 1 1 1 1 1 1 1 1 
1 1 1 1 1 1 1 1 1 
1 1 1 1 1 1 1 1 1 
1 1 1 1 1 1 1 1 1 
1 1 1 1 1 1 1 1 1 
1 1 1 1 1 1 1 1 1 
1 1 1 1 1 1 1 1 1 
1 1 1 1 1 1 1 1 1 
1 1 1 1 1 1 1 1 1 
1 1 1 1 1 1 1 1 1 
1 1 1 1 1 1 1 1 1 
1 1 1 1 1 1 1 1 1 
1 1 1 1 1 1 1 1 1 
1 1 1 1 1 1 1 1 1 
1 1 1 1 1 1 1 1 1 
1 1 1 1 1 1 1 1 1 
1 1 1 1 1 1 1 1 1 
1 1 1 1 1 1 1 1 1 
1 1 1 1 1 1 1 1 1 
1 1 1 1 1 1 1 1 1 
1 1 1 1 1 1 1 1 1 
1 1 1 1 1 1 1 1 1 
1 1 1 1 1 1 1 1 1 
1 1 1 1 1 1 1 1 1 
1 1 1 1 1 1 1 1 1 
1 1 1 1 1 1 1 1 1 
1 1 1 1 1 1 1 1 1 
1 1 1 1 1 1 1 1 1 
1 1 1 1 1 1 1 1 1 
1 1 1 1 1 1 1 1 1 
1 1 1 1 1 1 1 1 1 
1 1 1 1 1 1 1 1 1 
1 1 1 1 1 1 1 1 1 
1 1 1 1 1 1 1 1 1 
1 1 1 1 1 1 1 1 1 
1 1 1 1 1 1 1 1 1 
1 1 1 1 1 1 1 1 1 
1 1 1 1 1 1 1 1 1 
1 1 1 1 1 1 1 1 1 
1 1 1 1 1 1 1 1 1 
1 1 1 1 1 1 1 1 1 
1 1 1 1 1 1 1 1 1 
1 1 1 1 1 1 1 1 1 
1 1 1 1 1 1 1 1 1 
1 1 1 1 1 1 1 1 1 
1 1 1 1 1 1 1 1 1 
1 1 1 1 1 1 1 1 1 
1 1 1 1 1 1 1 1 1 
1 1 1 1 1 1 1 1 1 
1 1 1 1 1 1 1 1 1 
1 1 1 1 1 1 1 1 1 
1 1 1 1 1 1 1 1 1 
1 1 1 1 1 1 1 1 1 
1 1 1 1 1 1 1 1 1 
1 1 1 1 1 1 1 1 1 
1 1 1 1 1 1 1 1 1 
1 1 1 1 1 1 1 1 1 
1 1 1 1 1 1 1 1 1 
1 1 1 1 1 1 1 1 1 
1 1 1 1 1 1 1 1 1 
1 1 1 1 1 1 1 1 1 
1 1 1 1 1 1 1 1 1 
1 1 1 1 1 1 1 1 1 
1 1 1 1 1 1 1 1 1 
1 1 1 1 1 1 1 1 1 
1 1 1 1 1 1 1 1 1 
1 1 1 1 1 1 1 1 1 
1 1 1 1 1 1 1 1 1 
1 1 1 1 1 1 1 1 1 
1 1 1 1 1 1 1 1 1 
1 1 1 1 1 1 1 1 1 
1 1 1 1 1 1 1 1 1 
1 1 1 1 1 1 1 1 1 
1 1 1 1 1 1 1 1 1 
1 1 1 1 1 1 1 1 1 
1 1 1 1 1 1 1 1 1 
1 1 1 1 1 1 1 1 1 
1 1 1 1 1 1 1 1 1 
1 1 1 1 1 1 1 1 1 
1 1 1 1 1 1 1 1 1 
1 1 1 1 1 1 1 1 1 
1 1 1 1 1 1 1 1 1 
1 1 1 1 1 1 1 1 1 
1 1 1 1 1 1 1 1 1 
1 1 1 1 1 1 1 1 1 
1 1 1 1 1 1 1 1 1 
1 1 1 1 1 1 1 1 1 
1 1 1 1 1 1 1 1 1 
1 1 1 1 1 1 1 1 1 
1 1 1 1 1 1 1 1 1 
1 1 1 1 1 1 1 1 1 
1 1 1 1 1 1 1 1 1 
1 1 1 1 1 1 1 1 1 
1 1 1 1 1 1 1 1 1 
1 1 1 1 1 1 1 1 1 
1 1 1 1 1 1 1 1 1 
1 1 1 1 1 1 1 1 1 
1 1 1 1 1 1 1 1 1 
1 1 1 1 1 1 1 1 1 
1 1 1 1 1 1 1 1 1 
1 1 1 1 1 1 1 1 1 
1 1 1 1 1 1 1 1 1 
1 1 1 1 1 1 1 1 1 
1 1 1 1 1 1 1 1 1 
1 1 1 1 1 1 1 1 1 
1 1 1 1 1 1 1 1 1 
1 1 1 1 1 1 1 1 1 
1 1 1 1 1 1 1 1 1 
1 1 1 1 1 1 1 1 1 
1 1 1 1 1 1 1 1 1 
1 1 1 1 1 1 1 1 1 
1 1 1 1 1 1 1 1 1 
1 1 1 1 1 1 1 1 1 
1 1 1 1 1 1 1 1 1 
1 1 1 1 1 1 1 1 1 
1 1 1 1 1 1 1 1 1 
1 1 1 1 1 1 1 1 1 
1 1 1 1 1 1 1 1 1 
1 1 1 1 1 1 1 1 1 
1 1 1 1 1 1 1 1 1 
1 1 1 1 1 1 1 1 1 
1 1 1 1 1 1 1 1 1 
1 1 1 1 1 1 1 1 1 
1 1 1 1 1 1 1 1 1 
1 1 1 1 1 1 1 1 1 
1 1 1 1 1 1 1 1 1 
1 1 1 1 1 1 1 1 1 
1 1 1 1 1 1 1 1 1 
1 1 1 1 1 1 1 1 1 
1 1 1 1 1 1 1 1 1 
1 1 1 1 1 1 1 1 1 
1 1 1 1 1 1 1 1 1 
1 1 1 1 1 1 1 1 1 
1 1 1 1 1 1 1 1 1 
1 1 1 1 1 1 1 1 1 
1 1 1 1 1 1 1 1 1 
1 1 1 1 1 1 1 1 1 
1 1 1 1 1 1 1 1 1 
1 1 1 1 1 1 1 1 1 
1 1 1 1 1 1 1 1 1 
1 1 1 1 1 1 1 1 1 
1 1 1 1 1 1 1 1 1 
1 1 1 1 1 1 1 1 1 
1 1 1 1 1 1 1 1 1 
1 1 1 1 1 1 1 1 1 
1 1 1 1 1 1 1 1 1 
1 1 1 1 1 1 1 1 1 
1 1 1 1 1 1 1 1 1 
1 1 1 1 1 1 1 1 1 
1 1 1 1 1 1 1 1 1 
1 1 1 1 1 1 1 1 1 
1 1 1 1 1 1 1 1 1 
1 1 1 1 1 1 1 1 1 
1 1 1 1 1 1 1 1 1 
1 1 1 1 1 1 1 1 1 
1 1 1 1 1 1 1 1 1 
1 1 1 1 1 1 1 1 1 
1 1 1 1 1 1 1 1 1 
1 1 1 1 1 1 1 1 1 
1 1 1 1 1 1 1 1 1 
1 1 1 1 1 1 1 1 1 
1 1 1 1 1 1 1 1 1 
1 1 1 1 1 1 1 1 1 
1 1 1 1 1 1 1 1 1 
1 1 1 1 1 1 1 1 1 
1 1 1 1 1 1 1 1 1 
1 1 1 1 1 1 1 1 1 
1 1 1 1 1 1 1 1 1 
1 1 1 1 1 1 1 1 1 
1 1 1 1 1 1 1 1 1 
1 1 1 1 1 1 1 1 1 
1 1 1 1 1 1 1 1 1 
1 1 1 1 1 1 1 1 1 
1 1 1 1 1 1 1 1 1 
1 1 1 1 1 1 1 1 1 
1 1 1 1 1 1 1 1 1 
1 1 1 1 1 1 1 1 1 
1 1 1 1 1 1 1 1 1 
1 1 1 1 1 1 1 1 1 
1 1 1 1 1 1 1 1 1 
1 1 1 1 1 1 1 1 1 
1 1 1 1 1 1 1 1 1 
1 1 1 1 1 1 1 1 1 
1 1 1 1 1 1 1 1 1 
1 1 1 1 1 1 1 1 1 
1 1 1 1 1 1 1 1 1 
1 1 1 1 1 1 1 1 1 
1 1 1 1 1 1 1 1 1 
1 1 1 1 1 1 1 1 1 
1 1 1 1 1 1 1 1 1 
1 1 1 1 1 1 1 1 1 
1 1 1 1 1 1 1 1 1 
1 1 1 1 1 1 1 1 1 
1 1 1 1 1 1 1 1 1 
1 1 1 1 1 1 1 1 1 
1 1 1 1 1 1 1 1 1 
1 1 1 1 1 1 1 1 1 
1 1 1 1 1 1 1 1 1 
1 1 1 1 1 1 1 1 1 
1 1 1 1 1 1 1 1 1 
1 1 1 1 1 1 1 1 1 
1 1 1 1 1 1 1 1 1 
1 1 1 1 1 1 1 1 1 
1 1 1 1 1 1 1 1 1 
1 1 1 1 1 1 1 1 1 
1 1 1 1 1 1 1 1 1 
1 1 1 1 1 1 1 1 1 
1 1 1 1 1 1 1 1 1 
1 1 1 1 1 1 1 1 1 
1 1 1 1 1 1 1 1 1 
1 1 1 1 1 1 1 1 1 
1 1 1 1 1 1 1 1 1 
1 1 1 1 1 1 1 1 1 
1 1 1 1 1 1 1 1 1 
1 1 1 1 1 1 1 1 1 
1 1 1 1 1 1 1 1 1 
1 1 1 1 1 1 1 1 1 
1 1 1 1 1 1 1 1 1 
1 1 1 1 1 1 1 1 1 
1 1 1 1 1 1 1 1 1 
1 1 1 1 1 1 1 1 1 
1 1 1 1 1 1 1 1 1 
1 1 1 1 1 1 1 1 1 
1 1 1 1 1 1 1 1 1 
1 1 1 1 1 1 1 1 1 
1 1 1 1 1 1 1 1 1 
1 1 1 1 1 1 1 1 1 
1 1 1 1 1 1 1 1 1 
1 1 1 1 1 1 1 1 1 
1 1 1 1 1 1 1 1 1 
1 1 1 1 1 1 1 1 1 
1 1 1 1 1 1 1 1 1 
1 1 1 1 1 1 1 1 1 
1 1 1 1 1 1 1 1 1 
1 1 1 1 1 1 1 1 1 
1 1 1 1 1 1 1 1 1 
1 1 1 1 1 1 1 1 1 
1 1 1 1 1 1 1 1 1 
1 1 1 1 1 1 1 1 1 
1 1 1 1 1 1 1 1 1 
1 1 1 1 1 1 1 1 1 
1 1 1 1 1 1 1 1 1 
1 1 1 1 1 1 1 1 1 
1 1 1 1 1 1 1 1 1 
1 1 1 1 1 1 1 1 1 
1 1 1 1 1 1 1 1 1 
1 1 1 1 1 1 1 1 1 
1 1 1 1 1 1 1 1 1 
1 1 1 1 1 1 1 1 1 
1 1 1 1 1 1 1 1 1 
1 1 1 1 1 1 1 1 1 
1 1 1 1 1 1 1 1 1 
1 1 1 1 1 1 1 1 1 
1 1 1 1 1 1 1 1 1 
1 1 1 1 1 1 1 1 1 
1 1 1 1 1 1 1 1 1 
1 1 1 1 1 1 1 1 1 
1 1 1 1 1 1 1 1 1 
1 1 1 1 1 1 1 1 1 
1 1 1 1 1 1 1 1 1 
1 1 1 1 1 1 1 1 1 
1 1 1 1 1 1 1 1 1 
1 1 1 1 1 1 1 1 1 
1 1 1 1 1 1 1 1 1 
1 1 1 1 1 1 1 1 1 
1 1 1 1 1 1 1 1 1 
1 1 1 1 1 1 1 1 1 
1 1 1 1 1 1 1 1 1 
1 1 1 1 1 1 1 1 1 
1 1 1 1 1 1 1 1 1 
1 1 1 1 1 1 1 1 1 
1 1 1 1 1 1 1 1 1 
1 1 1 1 1 1 1 1 1 
1 1 1 1 1 1 1 1 1 
1 1 1 1 1 1 1 1 1 
1 1 1 1 1 1 1 1 1 
1 1 1 1 1 1 1 1 1 
1 1 1 1 1 1 1 1 1 
1 1 1 1 1 1 1 1 1 
1 1 1 1 1 1 1 1 1 
1 1 1 1 1 1 1 1 1 
1 1 1 1 1 1 1 1 1 
1 1 1 1 1 1 1 1 1 
1 1 1 1 1 1 1 1 1 
1 1 1 1 1 1 1 1 1 
1 1 1 1 1 1 1 1 1 
1 1 1 1 1 1 1 1 1 
1 1 1 1 1 1 1 1 1 
1 1 1 1 1 1 1 1 1 
1 1 1 1 1 1 1 1 1 
1 1 1 1 1 1 1 1 1 
1 1 1 1 1 1 1 1 1 
1 1 1 1 1 1 1 1 1 
1 1 1 1 1 1 1 1 1 
1 1 1 1 1 1 1 1 1 
1 1 1 1 1 1 1 1 1 
1 1 1 1 1 1 1 1 1 
1 1 1 1 1 1 1 1 1 
1 1 1 1 1 1 1 1 1 
1 1 1 1 1 1 1 1 1 
1 1 1 1 1 1 1 1 1 
1 1 1 1 1 1 1 1 1 
1 1 1 1 1 1 1 1 1 
1 1 1 1 1 1 1 1 1 
1 1 1 1 1 1 1 1 1 
1 1 1 1 1 1 1 1 1 
1 1 1 1 1 1 1 1 1 
1 1 1 1 1 1 1 1 1 
1 1 1 1 1 1 1 1 1 
1 1 1 1 1 1 1 1 1 
1 1 1 1 1 1 1 1 1 
1 1 1 1 1 1 1 1 1 
1 1 1 1 1 1 1 1 1 
1 1 1 1 1 1 1 1 1 
1 1 1 1 1 1 1 1 1 
1 1 1 1 1 1 1 1 1 
1 1 1 1 1 1 1 1 1 
1 1 1 1 1 1 1 1 1 
1 1 1 1 1 1 1 1 1 
1 1 1 1 1 1 1 1 1 
1 1 1 1 1 1 1 1 1 
1 1 1 1 1 1 1 1 1 
1 1 1 1 1 1 1 1 1 
1 1 1 1 1 1 1 1 1 
1 1 1 1 1 1 1 1 1 
1 1 1 1 1 1 1 1 1 
1 1 1 1 1 1 1 1 1 
1 1 1 1 1 1 1 1 1 
1 1 1 1 1 1 1 1 1 
1 1 1 1 1 1 1 1 1 
1 1 1 1 1 1 1 1 1 
1 1 1 1 1 1 1 1 1 
1 1 1 1 1 1 1 1 1 
1 1 1 1 1 1 1 1 1 
1 1 1 1 1 1 1 1 1 
1 1 1 1 1 1 1 1 1 
1 1 1 1 1 1 1 1 1 
1 1 1 1 1 1 1 1 1 
1 1 1 1 1 1 1 1 1 
1 1 1 1 1 1 1 1 1 
1 1 1 1 1 1 1 1 1 
1 1 1 1 1 1 1 1 1 
1 1 1 1 1 1 1 1 1 
1 1 1 1 1 1 1 1 1 
1 1 1 1 1 1 1 1 1 
1 1 1 1 1 1 1 1 1 
1 1 1 1 1 1 1 1 1 
1 1 1 1 1 1 1 1 1 
1 1 1 1 1 1 1 1 1 
1 1 1 1 1 1 1 1 1 
1 1 1 1 1 1 1 1 1 
1 1 1 1 1 1 1 1 1 
1 1 1 1 1 1 1 1 1 
1 1 1 1 1 1 1 1 1 
1 1 1 1 1 1 1 1 1 
1 1 1 1 1 1 1 1 1 
1 1 1 1 1 1 1 1 1 
1 1 1 1 1 1 1 1 1 
1 1 1 1 1 1 1 1 1 
1 1 1 1 1 1 1 1 1 
1 1 1 1 1 1 1 1 1 
1 1 1 1 1 1 1 1 1 
1 1 1 1 1 1 1 1 1 
1 1 1 1 1 1 1 1 1 
1 1 1 1 1 1 1 1 1 
1 1 1 1 1 1 1 1 1 
1 1 1 1 1 1 1 1 1 
1 1 1 1 1 1 1 1 1 
1 1 1 1 1 1 1 1 1 
1 1 1 1 1 1 1 1 1 
1 1 1 1 1 1 1 1 1 
1 1 1 1 1 1 1 1 1 
1 1 1 1 1 1 1 1 1 
1 1 1 1 1 1 1 1 1 
1 1 1 1 1 1 1 1 1 
1 1 1 1 1 1 1 1 1 
1 1 1 1 1 1 1 1 1 
1 1 1 1 1 1 1 1 1 
1 1 1 1 1 1 1 1 1 
1 1 1 1 1 1 1 1 1 
1 1 1 1 1 1 1 1 1 
1 1 1 1 1 1 1 1 1 
1 1 1 1 1 1 1 1 1 
1 1 1 1 1 1 1 1 1 
1 1 1 1 1 1 1 1 1 
1 1 1 1 1 1 1 1 1 
1 1 1 1 1 1 1 1 1 
1 1 1 1 1 1 1 1 1 
1 1 1 1 1 1 1 1 1 
1 1 1 1 1 1 1 1 1 
1 1 1 1 1 1 1 1 1 
1 1 1 1 1 1 1 1 1 
1 1 1 1 1 1 1 1 1 
1 1 1 1 1 1 1 1 1 
1 1 1 1 1 1 1 1 1 
1 1 1 1 1 1 1 1 1 
1 1 1 1 1 1 1 1 1 
1 1 1 1 1 1 1 1 1 
1 1 1 1 1 1 1 1 1 
1 1 1 1 1 1 1 1 1 
1 1 1 1 1 1 1 1 1 
1 1 1 1 1 1 1 1 1 
1 1 1 1 1 1 1 1 1 
1 1 1 1 1 1 1 1 1 
1 1 1 1 1 1 1 1 1 
1 1 1 1 1 1 1 1 1 
1 1 1 1 1 1 1 1 1 
1 1 1 1 1 1 1 1 1 
1 1 1 1 1 1 1 1 1 
1 1 1 1 1 1 1 1 1 
1 1 1 1 1 1 1 1 1 
1 1 1 1 1 1 1 1 1 
1 1 1 1 1 1 1 1 1 
1 1 1 1 1 1 1 1 1 
1 1 1 1 1 1 1 1 1 
1 1 1 1 1 1 1 1 1 
1 1 1 1 1 1 1 1 1 
1 1 1 1 1 1 1 1 1 
1 1 1 1 1 1 1 1 1 
1 1 1 1 1 1 1 1 1 
1 1 1 1 1 1 1 1 1 
1 1 1 1 1 1 1 1 1 
1 1 1 1 1 1 1 1 1 
1 1 1 1 1 1 1 1 1 
1 1 1 1 1 1 1 1 1 
1 1 1 1 1 1 1 1 1 
1 1 1 1 1 1 1 1 1 
1 1 1 1 1 1 1 1 1 
1 1 1 1 1 1 1 1 1 
1 1 1 1 1 1 1 1 1 
1 1 1 1 1 1 1 1 1 
1 1 1 1 1 1 1 1 1 
1 1 1 1 1 1 1 1 1 
1 1 1 1 1 1 1 1 1 
1 1 1 1 1 1 1 1 1 
1 1 1 1 1 1 1 1 1 
1 1 1 1 1 1 1 1 1 
1 1 1 1 1 1 1 1 1 
1 1 1 1 1 1 1 1 1 
1 1 1 1 1 1 1 1 1 
1 1 1 1 1 1 1 1 1 
1 1 1 1 1 1 1 1 1 
1 1 1 1 1 1 1 1 1 
1 1 1 1 1 1 1 1 1 
1 1 1 1 1 1 1 1 1 
1 1 1 1 1 1 1 1 1 
1 1 1 1 1 1 1 1 1 
1 1 1 1 1 1 1 1 1 
1 1 1 1 1 1 1 1 1 
1 1 1 1 1 1 1 1 1 
1 1 1 1 1 1 1 1 1 
1 1 1 1 1 1 1 1 1 
1 1 1 1 1 1 1 1 1 
1 1 1 1 1 1 1 1 1 
1 1 1 1 1 1 1 1 1 
1 1 1 1 1 1 1 1 1 
1 1 1 1 1 1 1 1 1 
1 1 1 1 1 1 1 1 1 
1 1 1 1 1 1 1 1 1 
1 1 1 1 1 1 1 1 1 
1 1 1 1 1 1 1 1 1 
1 1 1 1 1 1 1 1 1 
1 1 1 1 1 1 1 1 1 
1 1 1 1 1 1 1 1 1 
1 1 1 1 1 1 1 1 1 
1 1 1 1 1 1 1 1 1 
1 1 1 1 1 1 1 1 1 
1 1 1 1 1 1 1 1 1 
1 1 1 1 1 1 1 1 1 
1 1 1 1 1 1 1 1 1 
1 1 1 1 1 1 1 1 1 
1 1 1 1 1 1 1 1 1 
1 1 1 1 1 1 1 1 1 
1 1 1 1 1 1 1 1 1 
1 1 1 1 1 1 1 1 1 
1 1 1 1 1 1 1 1 1 
1 1 1 1 1 1 1 1 1 
1 1 1 1 1 1 1 1 1 
1 1 1 1 1 1 1 1 1 
1 1 1 1 1 1 1 1 1 
1 1 1 1 1 1 1 1 1 
1 1 1 1 1 1 1 1 1 
1 1 1 1 1 1 1 1 1 
1 1 1 1 1 1 1 1 1 
1 1 1 1 1 1 1 1 1 
1 1 1 1 1 1 1 1 1 
1 1 1 1 1 1 1 1 1 
1 1 1 1 1 1 1 1 1 
1 1 1 1 1 1 1 1 1 
1 1 1 1 1 1 1 1 1 
1 1 1 1 1 1 1 1 1 
1 1 1 1 1 1 1 1 1 
1 1 1 1 1 1 1 1 1 
1 1 1 1 1 1 1 1 1 
1 1 1 1 1 1 1 1 1 
1 1 1 1 1 1 1 1 1 
1 1 1 1 1 1 1 1 1 
1 1 1 1 1 1 1 1 1 
1 1 1 1 1 1 1 1 1 
1 1 1 1 1 1 1 1 1 
1 1 1 1 1 1 1 1 1 
1 1 1 1 1 1 1 1 1 
1 1 1 1 1 1 1 1 1 
1 1 1 1 1 1 1 1 1 
1 1 1 1 1 1 1 1 1 
1 1 1 1 1 1 1 1 1 
1 1 1 1 1 1 1 1 1 
1 1 1 1 1 1 1 1 1 
1 1 1 1 1 1 1 1 1 
1 1 1 1 1 1 1 1 1 
1 1 1 1 1 1 1 1 1 
1 1 1 1 1 1 1 1 1 
1 1 1 1 1 1 1 1 1 
1 1 1 1 1 1 1 1 1 
1 1 1 1 1 1 1 1 1 
1 1 1 1 1 1 1 1 1 
1 1 1 1 1 1 1 1 1 
1 1 1 1 1 1 1 1 1 
1 1 1 1 1 1 1 1 1 
1 1 1 1 1 1 1 1 1 
1 1 1 1 1 1 1 1 1 
1 1 1 1 1 1 1 1 1 
1 1 1 1 1 1 1 1 1 
1 1 1 1 1 1 1 1 1 
1 1 1 1 1 1 1 1 1 
1 1 1 1 1 1 1 1 1 
1 1 1 1 1 1 1 1 1 
1 1 1 1 1 1 1 1 1 
1 1 1 1 1 1 1 1 1 
1 1 1 1 1 1 1 1 1 
1 1 1 1 1 1 1 1 1 
1 1 1 1 1 1 1 1 1 
1 1 1 1 1 1 1 1 1 
1 1 1 1 1 1 1 1 1 
1 1 1 1 1 1 1 1 1 
1 1 1 1 1 1 1 1 1 
1 1 1 1 1 1 1 1 1 
1 1 1 1 1 1 1 1 1 
1 1 1 1 1 1 1 1 1 
1 1 1 1 1 1 1 1 1 
1 1 1 1 1 1 1 1 1 
1 1 1 1 1 1 1 1 1 
1 1 1 1 1 1 1 1 1 
1 1 1 1 1 1 1 1 1 
1 1 1 1 1 1 1 1 1 
1 1 1 1 1 1 1 1 1 
1 1 1 1 1 1 1 1 1 
1 1 1 1 1 1 1 1 1 
1 1 1 1 1 1 1 1 1 
1 1 1 1 1 1 1 1 1 
1 1 1 1 1 1 1 1 1 
1 1 1 1 1 1 1 1 1 
1 1 1 1 1 1 1 1 1 
1 1 1 1 1 1 1 1 1 
1 1 1 1 1 1 1 
NORMALS normals float
0 -0.0123447 -0.999924 0 -0.999924 -0.0123447 -0.702674 -0.711458 -0.00878343 
0.572569 -0.579726 -0.579726 -0.0123438 -0.0123438 -0.999848 -0.70708 -0.70708 -0.00872938 
-0.999848 -0.0123438 -0.0123438 0 0 -1 0.572569 -0.579726 -0.579726 
0 -0.0123447 -0.999924 0.0123438 -0.0123438 -0.999848 0.0123438 -0.999848 -0.0123438 
0.999848 -0.0123438 -0.0123438 -0.0123438 0.0123438 -0.999848 -0.999848 0.0123438 -0.0123438 
0 0.0123447 -0.999924 0 0 -1 0.0123447 0 -0.999924 
0.999924 0 -0.0123447 -0.0123438 0.999848 -0.0123438 -0.572569 0.579726 -0.579726 
-0.579726 0.572569 -0.579726 -0.0123447 0 -0.999924 0.0123447 0 -0.999924 
0.999924 0 -0.0123447 -0.0123447 0 -0.999924 -0.707107 0 -0.707107 
0.0123447 0 -0.999924 0.999924 0 -0.0123447 -0.0123447 0 -0.999924 
-0.707107 0 -0.707107 0.0123438 0.0123438 -0.999848 0.999848 0.0123438 -0.0123438 
0 0.0123447 -0.999924 -0.702674 0.00878343 -0.711458 0.572569 0.579726 -0.579726 
0.57735 0.57735 -0.57735 0 0.999924 -0.0123447 -0.0123447 -0.999924 0 
-0.707107 -0.707107 0 0.57735 -0.57735 -0.57735 0.00872938 -0.70708 -0.70708 
0.57735 -0.57735 -0.57735 -0.707107 -0.707107 0 -0.999924 -0.0123447 0 
0.579726 -0.579726 -0.572569 0.999924 -0.0123447 0 -0.711458 0.00878343 -0.702674 
1 0 0 -0.579726 0.579726 -0.572569 -0.579726 0.572569 -0.579726 
-0.579726 0.572569 -0.579726 0.711485 0 -0.702701 -0.707107 0 -0.707107 
-0.707107 0 -0.707107 0.711485 0 -0.702701 -0.707107 0 -0.707107 
-0.707107 0 -0.707107 0.711485 0 -0.702701 -0.70708 0.00872938 -0.70708 
-0.70708 0.00872938 -0.70708 0.579726 0.572569 -0.579726 0.707107 0 -0.707107 
-0.00872938 0.70708 -0.70708 -0.574945 0.582132 -0.574945 0 0 -1 
-0.574945 0.574945 -0.582132 0.702701 0 -0.711485 0 0 -1 
-0.702701 0 -0.711485 0.702701 0 -0.711485 0 0 -1 
-0.574945 -0.574945 -0.582132 0.574945 -0.574945 -0.582132 -0.0123438 -0.0123438 -0.999848 
-0.00872938 -0.70708 -0.70708 -0.70708 -0.00872938 -0.70708 0 0 -1 
-0.574945 -0.574945 -0.582132 0 0.0123447 -0.999924 0.574945 -0.574945 -0.582132 
0 0 -1 0 0 -1 0 -0.702701 -0.711485 
0.0123447 0 -0.999924 0.00878343 -0.702674 -0.711458 0.707107 0 -0.707107 
0 0 -1 -0.574945 -0.574945 -0.582132 0.574945 0.574945 -0.582132 
0.574945 0.574945 -0.582132 0 0.707107 -0.707107 0 0.702701 -0.711485 
0 0.702701 -0.711485 0.00878343 0.702674 -0.711458 -0.0123438 -0.0123438 -0.999848 
-0.00872938 -0.70708 -0.70708 -0.70708 -0.00872938 -0.70708 0 0 -1 
0 -0.702701 -0.711485 0 0 -1 0 -0.702701 -0.711485 
0 0 -1 -0.574945 -0.574945 -0.582132 0.0123438 0.0123438 -0.999848 
0.70708 0.00872938 -0.70708 0 0 -1 -0.574945 -0.574945 -0.582132 
0.574945 0.574945 -0.582132 0.574945 0.574945 -0.582132 0 0.702701 -0.711485 
0 0.702701 -0.711485 0.00872938 0.70708 -0.70708 -0.0123438 -0.0123438 -0.999848 
-0.00872938 -0.70708 -0.70708 -0.70708 -0.00872938 -0.70708 0 0 -1 
0 -0.702701 -0.711485 0 0 -1 0 -0.702701 -0.711485 
0 0 -1 -0.574945 -0.574945 -0.582132 0.0123438 0.0123438 -0.999848 