# vtk DataFile Version 3.0
vtk output
ASCII
DATASET POLYDATA
POINTS 6208 float
102 26 64.0227 102 25.0227 65 101.023 26 65 
102.977 26 65 101 27 64.0227 101 26.0227 65 
100.023 27 65 102 27 64.0227 102.977 27 65 
110 27 64.0227 110 26.0227 65 109.023 27 65 
111 27 64.0227 111 26.0227 65 111.977 27 65 
100 28 64.0227 100 27.0227 65 99.0227 28 65 
101 27.9773 65 100.977 28 65 102 27.9773 65 
110 28 64.0227 109.023 28 65 110.977 28 65 
111 27.9773 65 99 29 64.0227 99 28.0227 65 
98.0227 29 65 100 29 64.0227 100.977 29 65 
110 29 64.0227 109.023 29 65 111 28.0227 65 
111 29 64.0227 111.977 29 65 99 29.9773 65 
100 29.9773 65 110 29.9773 65 111 29.9773 65 
106 23 65.0227 106 22.0227 66 105.023 23 66 
106.977 23 66 110 23 65.0227 110 22.0227 66 
109.023 23 66 110.977 23 66 103 24 65.0227 
103 23.0227 66 102.023 24 66 104 24 65.0227 
104 23.0227 66 105 24 65.0227 105 23.0227 66 
106 24 65.0227 107 23.0227 66 107 24 65.0227 
108 24 65.0227 108 23.0227 66 109 24 65.0227 
109 23.0227 66 110 24 65.0227 111 23.0227 66 
111 24 65.0227 112 24 65.0227 112 23.0227 66 
112.977 24 66 102 25 65.0227 102 24.0227 66 
101.023 25 66 103 25 65.0227 104 25 65.0227 
105 25 65.0227 106 25 65.0227 107 25 65.0227 
108 25 65.0227 109 25 65.0227 110 25 65.0227 
111 25 65.0227 112 25 65.0227 112.977 25 66 
101 26 65.0227 101 25.0227 66 100.023 26 66 
103 26 65.0227 104 26 65.0227 105 26 65.0227 
106 26 65.0227 107 26 65.0227 108 26 65.0227 
109 26 65.0227 110 26 65.0227 111 26 65.0227 
112 26 65.0227 112.977 26 66 100 27 65.0227 
100 26.0227 66 99.0227 27 66 103 27 65.0227 
104 27 65.0227 105 27 65.0227 106 27 65.0227 
107 27 65.0227 108 27 65.0227 109 27 65.0227 
112 27 65.0227 112.977 27 66 99 28 65.0227 
99 27.0227 66 98.0227 28 66 101 28 65.0227 
102 28 65.0227 103 28 65.0227 104 28 65.0227 
105 28 65.0227 106 28 65.0227 107 28 65.0227 
108 28 65.0227 109 28 65.0227 111 28 65.0227 
112 28 65.0227 112.977 28 66 98.0227 29 66 
101 29 65.0227 102 29 65.0227 103 29 65.0227 
104 29 65.0227 105 29 65.0227 106 29 65.0227 
107 29 65.0227 108 29 65.0227 109 29 65.0227 
112 29 65.0227 112.977 29 66 99 30 65.0227 
98.0227 30 66 100 30 65.0227 101 30 65.0227 
102 30 65.0227 103 30 65.0227 104 30 65.0227 
105 30 65.0227 106 30 65.0227 107 30 65.0227 
108 30 65.0227 109 30 65.0227 110 30 65.0227 
111 30 65.0227 112 30 65.0227 112.977 30 66 
99 31 65.0227 98.0227 31 66 100 31 65.0227 
101 31 65.0227 102 31 65.0227 103 31 65.0227 
104 31 65.0227 105 31 65.0227 106 31 65.0227 
107 31 65.0227 108 31 65.0227 109 31 65.0227 
110 31 65.0227 111 31 65.0227 111.977 31 66 
112 30.9773 66 99 32 65.0227 98.0227 32 66 
100 32 65.0227 101 32 65.0227 102 32 65.0227 
103 32 65.0227 104 32 65.0227 105 32 65.0227 
106 32 65.0227 107 32 65.0227 108 32 65.0227 
109 32 65.0227 110 32 65.0227 110.977 32 66 
111 31.9773 66 99 33 65.0227 98.0227 33 66 
100 33 65.0227 101 33 65.0227 102 33 65.0227 
103 33 65.0227 104 33 65.0227 105 33 65.0227 
106 33 65.0227 107 33 65.0227 108 33 65.0227 
109 33 65.0227 109.977 33 66 110 32.9773 66 
99 33.9773 66 100 33.9773 66 101 33.9773 66 
102 33.9773 66 102.023 34 66 103 34 65.0227 
104 34 65.0227 105 34 65.0227 106 34 65.0227 
106.977 34 66 107 33.9773 66 108 33.9773 66 
109 33.9773 66 103 35 65.0227 102.023 35 66 
104 35 65.0227 105 35 65.0227 105.977 35 66 
106 34.9773 66 103 35.9773 66 104 35.9773 66 
105 35.9773 66 106 22.0227 67 105.023 23 67 
107 23 66.0227 107 22.0227 67 108 23 66.0227 
108 22.0227 67 109 23 66.0227 109 22.0227 67 
110 22.0227 67 110.977 23 67 103 23.0227 67 
102.023 24 67 104 23.0227 67 105 23.0227 67 
111 23.0227 67 112 23.0227 67 112.977 24 67 
102 24.0227 67 101.023 25 67 112.977 25 67 
101 25.0227 67 100.023 26 67 112.977 26 67 
100 26.0227 67 99.0227 27 67 112.977 27 67 
99 27.0227 67 98.0227 28 67 112.977 28 67 
98.0227 29 67 112.977 29 67 98.0227 30 67 
112.977 30 67 98.0227 31 67 111.977 31 67 
112 30.9773 67 98.0227 32 67 110.977 32 67 
111 31.9773 67 98.0227 33 67 110 33 66.0227 
110.977 33 67 99 33.9773 67 100 33.9773 67 
101 33.9773 67 102 34 66.0227 101.023 34 67 
106.977 34 67 107 33.9773 67 108 34 66.0227 
107.023 34 67 108.977 34 67 109 33.9773 67 
110 33.9773 67 102 34.9773 67 102.023 35 67 
105.977 35 67 106 34.9773 67 108 34.9773 67 
103 35.9773 67 104 35.9773 67 105 35.9773 67 
106 23 67.9773 107 23 67.9773 108 23 67.9773 
109 23 67.9773 110 23 67.9773 103 23.0227 68 
102.023 24 68 104 23.0227 68 105 23.0227 68 
106 23.0227 68 107 23.0227 68 108 23.0227 68 
109 23.0227 68 110 23.0227 68 111 23.0227 68 
112 23.0227 68 112.977 24 68 102 24.0227 68 
101.023 25 68 112.977 25 68 101 25.0227 68 
100.023 26 68 112.977 26 68 100 26.0227 68 
99.0227 27 68 112.977 27 68 99 27.0227 68 
98.0227 28 68 112.977 28 68 98.0227 29 68 
112.977 29 68 98.0227 30 68 112.977 30 68 
98.0227 31 68 112 31 67.0227 112.977 31 68 
98.0227 32 68 111 32 67.0227 112 32 67.0227 
112.977 32 68 98.0227 33 68 111 33 67.0227 
111.977 33 68 112 32.9773 68 99 34 67.0227 
98.0227 34 68 100 34 67.0227 101 34 67.0227 
107 34 67.0227 109 34 67.0227 110 34 67.0227 
110.977 34 68 111 33.9773 68 99 35 67.0227 
98.0227 35 68 100 35 67.0227 101 35 67.0227 
102 35 67.0227 106 35 67.0227 107 35 67.0227 
108 35 67.0227 109 35 67.0227 109.977 35 68 
110 34.9773 68 99 35.9773 68 100 35.9773 68 
101 35.9773 68 102 35.9773 68 103 35.9773 68 
104 35.9773 68 105 35.9773 68 106 35.9773 68 
107 35.9773 68 108 35.9773 68 109 35.9773 68 
103 23.0227 69 102.023 24 69 104 23.0227 69 
105 23.0227 69 106 23.0227 69 107 23.0227 69 
108 23.0227 69 109 23.0227 69 110 23.0227 69 
111 23.0227 69 112 23.0227 69 112.977 24 69 
102 24.0227 69 101.023 25 69 112.977 25 69 
101 25.0227 69 100.023 26 69 112.977 26 69 
100 26.0227 69 99.0227 27 69 112.977 27 69 
99 27.0227 69 98.0227 28 69 112.977 28 69 
98.0227 29 69 112.977 29 69 98.0227 30 69 
112.977 30 69 98.0227 31 69 112.977 31 69 
98.0227 32 69 112.977 32 69 98 33 68.0227 
98 32.0227 69 97.0227 33 69 111.977 33 69 
112 32.9773 69 98 34 68.0227 97.0227 34 69 
110.977 34 69 111 33.9773 69 96 35 68.0227 
96 34.0227 69 95.0227 35 69 97 35 68.0227 
97 34.0227 69 98 35 68.0227 110 35 68.0227 
110.977 35 69 96 36 68.0227 95.0227 36 69 
96.9773 36 69 97 35.9773 69 98 35.9773 69 
99 35.9773 69 100 35.9773 69 101 35.9773 69 
102 35.9773 69 103 35.9773 69 104 35.9773 69 
105 35.9773 69 106 35.9773 69 107 35.9773 69 
108 35.9773 69 109 35.9773 69 110 35.9773 69 
95 37 68.0227 95 36.0227 69 94.0227 37 69 
96 37 68.0227 96.9773 37 69 95 37.9773 69 
96 37.9773 69 103 23.0227 70 102.023 24 70 
104 23.0227 70 105 23.0227 70 106 23.0227 70 
107 23.0227 70 108 23.0227 70 109 23.0227 70 
110 23.0227 70 111 23.0227 70 112 23.0227 70 
112.977 24 70 102 24.0227 70 101.023 25 70 
112.977 25 70 101 25.0227 70 100.023 26 70 
112.977 26 70 100 26.0227 70 99.0227 27 70 
112.977 27 70 99 27.0227 70 98.0227 28 70 
112.977 28 70 98.0227 29 70 112.977 29 70 
98.0227 30 70 112.977 30 70 98.0227 31 70 
112.977 31 70 98.0227 32 70 112.977 32 70 
98 32.0227 70 97.0227 33 70 111.977 33 70 
112 32.9773 70 97 34 69.0227 97 33.0227 70 
96.0227 34 70 110.977 34 70 111 33.9773 70 
96 34.0227 70 95.0227 35 70 110.977 35 70 
95 36 69.0227 95 35.0227 70 94.0227 36 70 
97 36 69.0227 98 36 69.0227 99 36 69.0227 
100 36 69.0227 101 36 69.0227 102 36 69.0227 
103 36 69.0227 104 36 69.0227 105 36 69.0227 
106 36 69.0227 107 36 69.0227 108 36 69.0227 
109 36 69.0227 110 36 69.0227 110.977 36 70 
94.0227 37 70 97 37 69.0227 98 37 69.0227 
99 37 69.0227 100 37 69.0227 101 37 69.0227 
102 37 69.0227 103 37 69.0227 104 37 69.0227 
105 37 69.0227 106 37 69.0227 107 37 69.0227 
108 37 69.0227 109 37 69.0227 109.977 37 70 
110 36.9773 70 95 38 69.0227 94.0227 38 70 
96 38 69.0227 97 38 69.0227 98 38 69.0227 
99 38 69.0227 100 38 69.0227 101 38 69.0227 
102 38 69.0227 103 38 69.0227 104 38 69.0227 
105 38 69.0227 106 38 69.0227 107 38 69.0227 
108 38 69.0227 108.977 38 70 109 37.9773 70 
95 39 69.0227 94.0227 39 70 96 39 69.0227 
97 39 69.0227 98 39 69.0227 99 39 69.0227 
100 39 69.0227 101 39 69.0227 102 39 69.0227 
103 39 69.0227 104 39 69.0227 105 39 69.0227 
106 39 69.0227 107 39 69.0227 108 39 69.0227 
108.977 39 70 95 40 69.0227 94.0227 40 70 
96 40 69.0227 97 40 69.0227 98 40 69.0227 
99 40 69.0227 100 40 69.0227 101 40 69.0227 
102 40 69.0227 103 40 69.0227 104 40 69.0227 
105 40 69.0227 106 40 69.0227 107 40 69.0227 
108 40 69.0227 108.977 40 70 95 41 69.0227 
94.0227 41 70 96 41 69.0227 97 41 69.0227 
98 41 69.0227 99 41 69.0227 100 41 69.0227 
101 41 69.0227 102 41 69.0227 103 41 69.0227 
104 41 69.0227 105 41 69.0227 106 41 69.0227 
107 41 69.0227 107.977 41 70 108 40.9773 70 
95 41.9773 70 96 41.9773 70 97 41.9773 70 
98 41.9773 70 99 41.9773 70 100 41.9773 70 
101 41.9773 70 102 41.9773 70 103 41.9773 70 
104 41.9773 70 105 41.9773 70 106 41.9773 70 
107 41.9773 70 104 23 70.0227 104 22.0227 71 
103.023 23 71 105 23 70.0227 105 22.0227 71 
106 23 70.0227 106 22.0227 71 107 23 70.0227 
107 22.0227 71 108 23 70.0227 108 22.0227 71 
109 23 70.0227 109 22.0227 71 110 23 70.0227 
110 22.0227 71 111 23 70.0227 111 22.0227 71 
112 23 70.0227 112 22.0227 71 112.977 23 71 
102 24 70.0227 102 23.0227 71 101.023 24 71 
103 23.0227 71 112.977 24 71 101 25 70.0227 
101 24.0227 71 100.023 25 71 112.977 25 71 
100.023 26 71 112.977 26 71 100 26.0227 71 
99.0227 27 71 112.977 27 71 99 27.0227 71 
98.0227 28 71 112.977 28 71 98.0227 29 71 
112.977 29 71 98.0227 30 71 112.977 30 71 
98.0227 31 71 112.977 31 71 98.0227 32 71 
112.977 32 71 98 32.0227 71 97.0227 33 71 
112 33 70.0227 112.977 33 71 97 33.0227 71 
96.0227 34 71 110.977 34 71 111 33.9773 71 
112 33.9773 71 96 34.0227 71 95.0227 35 71 
111 34.0227 71 111 35 70.0227 112 35 70.0227 
112 34.0227 71 113 35 70.0227 113 34.0227 71 
113.977 35 71 95 35.0227 71 94.0227 36 71 
110.977 36 71 111 35.9773 71 112 35.9773 71 
113 35.9773 71 94.0227 37 71 110 37 70.0227 
110.977 37 71 94.0227 38 71 108.977 38 71 
109 37.9773 71 110 37.9773 71 94.0227 39 71 
108.977 39 71 94.0227 40 71 108.977 40 71 
[...]
POINT_DATA 6208
SCALARS scalars float
LOOKUP_TABLE default
1 1 1 1 1 1 1 1 1 
1 1 1 1 1 1 1 1 1 
1 1 1 1 1 1 1 1 1 
1 1 1 1 1 1 1 1 1 
1 1 1 1 1 1 1 1 1 
1 1 1 1 1 1 1 1 1 
1 1 1 1 1 1 1 1 1 
1 1 1 1 1 1 1 1 1 
1 1 1 1 1 1 1 1 1 
1 1 1 1 1 1 1 1 1 
1 1 1 1 1 1 1 1 1 
1 1 1 1 1 1 1 1 1 
1 1 1 1 1 1 1 1 1 
1 1 1 1 1 1 1 1 1 
1 1 1 1 1 1 1 1 1 
1 1 1 1 1 1 1 1 1 
1 1 1 1 1 1 1 1 1 
1 1 1 1 1 1 1 1 1 
1 1 1 1 1 1 1 1 1 
1 1 1 1 1 1 1 1 1 
1 1 1 1 1 1 1 1 1 
1 1 1 1 1 1 1 1 1 
1 1 1 1 1 1 1 1 1 
1 1 1 1 1 1 1 1 1 
1 1 1 1 1 1 1 1 1 
1 1 1 1 1 1 1 1 1 
1 1 1 1 1 1 1 1 1 
1 1 1 1 1 1 1 1 1 
1 1 1 1 1 1 1 1 1 
1 1 1 1 1 1 1 1 1 
1 1 1 1 1 1 1 1 1 
1 1 1 1 1 1 1 1 1 
1 1 1 1 1 1 1 1 1 
1 1 1 1 1 1 1 1 1 
1 1 1 1 1 1 1 1 1 
1 1 1 1 1 1 1 1 1 
1 1 1 1 1 1 1 1 1 
1 1 1 1 1 1 1 1 1 
1 1 1 1 1 1 1 1 1 
1 1 1 1 1 1 1 1 1 
1 1 1 1 1 1 1 1 1 
1 1 1 1 1 1 1 1 1 
1 1 1 1 1 1 1 1 1 
1 1 1 1 1 1 1 1 1 
1 1 1 1 1 1 1 1 1 
1 1 1 1 1 1 1 1 1 
1 1 1 1 1 1 1 1 1 
1 1 1 1 1 1 1 1 1 
1 1 1 1 1 1 1 1 1 
1 1 1 1 1 1 1 1 1 
1 1 1 1 1 1 1 1 1 
1 1 1 1 1 1 1 1 1 
1 1 1 1 1 1 1 1 1 
1 1 1 1 1 1 1 1 1 
1 1 1 1 1 1 1 1 1 
1 1 1 1 1 1 1 1 1 
1 1 1 1 1 1 1 1 1 
1 1 1 1 1 1 1 1 1 
1 1 1 1 1 1 1 1 1 
1 1 1 1 1 1 1 1 1 
1 1 1 1 1 1 1 1 1 
1 1 1 1 1 1 1 1 1 
1 1 1 1 1 1 1 1 1 
1 1 1 1 1 1 1 1 1 
1 1 1 1 1 1 1 1 1 
1 1 1 1 1 1 1 1 1 
1 1 1 1 1 1 1 1 1 
1 1 1 1 1 1 1 1 1 
1 1 1 1 1 1 1 1 1 
1 1 1 1 1 1 1 1 1 
1 1 1 1 1 1 1 1 1 
1 1 1 1 1 1 1 1 1 
1 1 1 1 1 1 1 1 1 
1 1 1 1 1 1 1 1 1 
1 1 1 1 1 1 1 1 1 
1 1 1 1 1 1 1 1 1 
1 1 1 1 1 1 1 1 1 
1 1 1 1 1 1 1 1 1 
1 1 1 1 1 1 1 1 1 
1 1 1 1 1 1 1 1 1 
1 1 1 1 1 1 1 1 1 
1 1 1 1 1 1 1 1 1 
1 1 1 1 1 1 1 1 1 
1 1 1 1 1 1 1 1 1 
1 1 1 1 1 1 1 1 1 
1 1 1 1 1 1 1 1 1 
1 1 1 1 1 1 1 1 1 
1 1 1 1 1 1 1 1 1 
1 1 1 1 1 1 1 1 1 
1 1 1 1 1 1 1 1 1 
1 1 1 1 1 1 1 1 1 
1 1 1 1 1 1 1 1 1 
1 1 1 1 1 1 1 1 1 
1 1 1 1 1 1 1 1 1 
1 1 1 1 1 1 1 1 1 
1 1 1 1 1 1 1 1 1 
1 1 1 1 1 1 1 1 1 
1 1 1 1 1 1 1 1 1 
1 1 1 1 1 1 1 1 1 
1 1 1 1 1 1 1 1 1 
1 1 1 1 1 1 1 1 1 
1 1 1 1 1 1 1 1 1 
1 1 1 1 1 1 1 1 1 
1 1 1 1 1 1 1 1 1 
1 1 1 1 1 1 1 1 1 
1 1 1 1 1 1 1 1 1 
1 1 1 1 1 1 1 1 1 
1 1 1 1 1 1 1 1 1 
1 1 1 1 1 1 1 1 1 
1 1 1 1 1 1 1 1 1 
1 1 1 1 1 1 1 1 1 
1 1 1 1 1 1 1 1 1 
1 1 1 1 1 1 1 1 1 
1 1 1 1 1 1 1 1 1 
1 1 1 1 1 1 1 1 1 
1 1 1 1 1 1 1 1 1 
1 1 1 1 1 1 1 1 1 
1 1 1 1 1 1 1 1 1 
1 1 1 1 1 1 1 1 1 
1 1 1 1 1 1 1 1 1 
1 1 1 1 1 1 1 1 1 
1 1 1 1 1 1 1 1 1 
1 1 1 1 1 1 1 1 1 
1 1 1 1 1 1 1 1 1 
1 1 1 1 1 1 1 1 1 
1 1 1 1 1 1 1 1 1 
1 1 1 1 1 1 1 1 1 
1 1 1 1 1 1 1 1 1 
1 1 1 1 1 1 1 1 1 
1 1 1 1 1 1 1 1 1 
1 1 1 1 1 1 1 1 1 
1 1 1 1 1 1 1 1 1 
1 1 1 1 1 1 1 1 1 
1 1 1 1 1 1 1 1 1 
1 1 1 1 1 1 1 1 1 
1 1 1 1 1 1 1 1 1 
1 1 1 1 1 1 1 1 1 
1 1 1 1 1 1 1 1 1 
1 1 1 1 1 1 1 1 1 
1 1 1 1 1 1 1 1 1 
1 1 1 1 1 1 1 1 1 
1 1 1 1 1 1 1 1 1 
1 1 1 1 1 1 1 1 1 
1 1 1 1 1 1 1 1 1 
1 1 1 1 1 1 1 1 1 
1 1 1 1 1 1 1 1 1 
1 1 1 1 1 1 1 1 1 
1 1 1 1 1 1 1 1 1 
1 1 1 1 1 1 1 1 1 
1 1 1 1 1 1 1 1 1 
1 1 1 1 1 1 1 1 1 
1 1 1 1 1 1 1 1 1 
1 1 1 1 1 1 1 1 1 
1 1 1 1 1 1 1 1 1 
1 1 1 1 1 1 1 1 1 
1 1 1 1 1 1 1 1 1 
1 1 1 1 1 1 1 1 1 
1 1 1 1 1 1 1 1 1 
1 1 1 1 1 1 1 1 1 
1 1 1 1 1 1 1 1 1 
1 1 1 1 1 1 1 1 1 
1 1 1 1 1 1 1 1 1 
1 1 1 1 1 1 1 1 1 
1 1 1 1 1 1 1 1 1 
1 1 1 1 1 1 1 1 1 
1 1 1 1 1 1 1 1 1 
1 1 1 1 1 1 1 1 1 
1 1 1 1 1 1 1 1 1 
1 1 1 1 1 1 1 1 1 
1 1 1 1 1 1 1 1 1 
1 1 1 1 1 1 1 1 1 
1 1 1 1 1 1 1 1 1 
1 1 1 1 1 1 1 1 1 
1 1 1 1 1 1 1 1 1 
1 1 1 1 1 1 1 1 1 
1 1 1 1 1 1 1 1 1 
1 1 1 1 1 1 1 1 1 
1 1 1 1 1 1 1 1 1 
1 1 1 1 1 1 1 1 1 
1 1 1 1 1 1 1 1 1 
1 1 1 1 1 1 1 1 1 
1 1 1 1 1 1 1 1 1 
1 1 1 1 1 1 1 1 1 
1 1 1 1 1 1 1 1 1 
1 1 1 1 1 1 1 1 1 
1 1 1 1 1 1 1 1 1 
1 1 1 1 1 1 1 1 1 
1 1 1 1 1 1 1 1 1 
1 1 1 1 1 1 1 1 1 
1 1 1 1 1 1 1 1 1 
1 1 1 1 1 1 1 1 1 
1 1 1 1 1 1 1 1 1 
1 1 1 1 1 1 1 1 1 
1 1 1 1 1 1 1 1 1 
1 1 1 1 1 1 1 1 1 
1 1 1 1 1 1 1 1 1 
1 1 1 1 1 1 1 1 1 
1 1 1 1 1 1 1 1 1 
1 1 1 1 1 1 1 1 1 
1 1 1 1 1 1 1 1 1 
1 1 1 1 1 1 1 1 1 
1 1 1 1 1 1 1 1 1 
1 1 1 1 1 1 1 1 1 
1 1 1 1 1 1 1 1 1 
1 1 1 1 1 1 1 1 1 
1 1 1 1 1 1 1 1 1 
1 1 1 1 1 1 1 1 1 
1 1 1 1 1 1 1 1 1 
1 1 1 1 1 1 1 1 1 
1 1 1 1 1 1 1 1 1 
1 1 1 1 1 1 1 1 1 
1 1 1 1 1 1 1 1 1 
1 1 1 1 1 1 1 1 1 
1 1 1 1 1 1 1 1 1 
1 1 1 1 1 1 1 1 1 
1 1 1 1 1 1 1 1 1 
1 1 1 1 1 1 1 1 1 
1 1 1 1 1 1 1 1 1 
1 1 1 1 1 1 1 1 1 
1 1 1 1 1 1 1 1 1 
1 1 1 1 1 1 1 1 1 
1 1 1 1 1 1 1 1 1 
1 1 1 1 1 1 1 1 1 
1 1 1 1 1 1 1 1 1 
1 1 1 1 1 1 1 1 1 
1 1 1 1 1 1 1 1 1 
1 1 1 1 1 1 1 1 1 
1 1 1 1 1 1 1 1 1 
1 1 1 1 1 1 1 1 1 
1 1 1 1 1 1 1 1 1 
1 1 1 1 1 1 1 1 1 
1 1 1 1 1 1 1 1 1 
1 1 1 1 1 1 1 1 1 
1 1 1 1 1 1 1 1 1 
1 1 1 1 1 1 1 1 1 
1 1 1 1 1 1 1 1 1 
1 1 1 1 1 1 1 1 1 
1 1 1 1 1 1 1 1 1 
1 1 1 1 1 1 1 1 1 
1 1 1 1 1 1 1 1 1 
1 1 1 1 1 1 1 1 1 
1 1 1 1 1 1 1 1 1 
1 1 1 1 1 1 1 1 1 
1 1 1 1 1 1 1 1 1 
1 1 1 1 1 1 1 1 1 
1 1 1 1 1 1 1 1 1 
1 1 1 1 1 1 1 1 1 
1 1 1 1 1 1 1 1 1 
1 1 1 1 1 1 1 1 1 
1 1 1 1 1 1 1 1 1 
1 1 1 1 1 1 1 1 1 
1 1 1 1 1 1 1 1 1 
1 1 1 1 1 1 1 1 1 
1 1 1 1 1 1 1 1 1 
1 1 1 1 1 1 1 1 1 
1 1 1 1 1 1 1 1 1 
1 1 1 1 1 1 1 1 1 
1 1 1 1 1 1 1 1 1 
1 1 1 1 1 1 1 1 1 
1 1 1 1 1 1 1 1 1 
1 1 1 1 1 1 1 1 1 
1 1 1 1 1 1 1 1 1 
1 1 1 1 1 1 1 1 1 
1 1 1 1 1 1 1 1 1 
1 1 1 1 1 1 1 1 1 
1 1 1 1 1 1 1 1 1 
1 1 1 1 1 1 1 1 1 
1 1 1 1 1 1 1 1 1 
1 1 1 1 1 1 1 1 1 
1 1 1 1 1 1 1 1 1 
1 1 1 1 1 1 1 1 1 
1 1 1 1 1 1 1 1 1 
1 1 1 1 1 1 1 1 1 
1 1 1 1 1 1 1 1 1 
1 1 1 1 1 1 1 1 1 
1 1 1 1 1 1 1 1 1 
1 1 1 1 1 1 1 1 1 
1 1 1 1 1 1 1 1 1 
1 1 1 1 1 1 1 1 1 
1 1 1 1 1 1 1 1 1 
1 1 1 1 1 1 1 1 1 
1 1 1 1 1 1 1 1 1 
1 1 1 1 1 1 1 1 1 
1 1 1 1 1 1 1 1 1 
1 1 1 1 1 1 1 1 1 
1 1 1 1 1 1 1 1 1 
1 1 1 1 1 1 1 1 1 
1 1 1 1 1 1 1 1 1 
1 1 1 1 1 1 1 1 1 
1 1 1 1 1 1 1 1 1 
1 1 1 1 1 1 1 1 1 
1 1 1 1 1 1 1 1 1 
1 1 1 1 1 1 1 1 1 
1 1 1 1 1 1 1 1 1 
1 1 1 1 1 1 1 1 1 
1 1 1 1 1 1 1 1 1 
1 1 1 1 1 1 1 1 1 
1 1 1 1 1 1 1 1 1 
1 1 1 1 1 1 1 1 1 
1 1 1 1 1 1 1 1 1 
1 1 1 1 1 1 1 1 1 
1 1 1 1 1 1 1 1 1 
1 1 1 1 1 1 1 1 1 
1 1 1 1 1 1 1 1 1 
1 1 1 1 1 1 1 1 1 
1 1 1 1 1 1 1 1 1 
1 1 1 1 1 1 1 1 1 
1 1 1 1 1 1 1 1 1 
1 1 1 1 1 1 1 1 1 
1 1 1 1 1 1 1 1 1 
1 1 1 1 1 1 1 1 1 
1 1 1 1 1 1 1 1 1 
1 1 1 1 1 1 1 1 1 
1 1 1 1 1 1 1 1 1 
1 1 1 1 1 1 1 1 1 
1 1 1 1 1 1 1 1 1 
1 1 1 1 1 1 1 1 1 
1 1 1 1 1 1 1 1 1 
1 1 1 1 1 1 1 1 1 
1 1 1 1 1 1 1 1 1 
1 1 1 1 1 1 1 1 1 
1 1 1 1 1 1 1 1 1 
1 1 1 1 1 1 1 1 1 
1 1 1 1 1 1 1 1 1 
1 1 1 1 1 1 1 1 1 
1 1 1 1 1 1 1 1 1 
1 1 1 1 1 1 1 1 1 
1 1 1 1 1 1 1 1 1 
1 1 1 1 1 1 1 1 1 
1 1 1 1 1 1 1 1 1 
1 1 1 1 1 1 1 1 1 
1 1 1 1 1 1 1 1 1 
1 1 1 1 1 1 1 1 1 
1 1 1 1 1 1 1 1 1 
1 1 1 1 1 1 1 1 1 
1 1 1 1 1 1 1 1 1 
1 1 1 1 1 1 1 1 1 
1 1 1 1 1 1 1 1 1 
1 1 1 1 1 1 1 1 1 
1 1 1 1 1 1 1 1 1 
1 1 1 1 1 1 1 1 1 
1 1 1 1 1 1 1 1 1 
1 1 1 1 1 1 1 1 1 
1 1 1 1 1 1 1 1 1 
1 1 1 1 1 1 1 1 1 
1 1 1 1 1 1 1 1 1 
1 1 1 1 1 1 1 1 1 
1 1 1 1 1 1 1 1 1 
1 1 1 1 1 1 1 1 1 
1 1 1 1 1 1 1 1 1 
1 1 1 1 1 1 1 1 1 
1 1 1 1 1 1 1 1 1 
1 1 1 1 1 1 1 1 1 
1 1 1 1 1 1 1 1 1 
1 1 1 1 1 1 1 1 1 
1 1 1 1 1 1 1 1 1 
1 1 1 1 1 1 1 1 1 
1 1 1 1 1 1 1 1 1 
1 1 1 1 1 1 1 1 1 
1 1 1 1 1 1 1 1 1 
1 1 1 1 1 1 1 1 1 
1 1 1 1 1 1 1 1 1 
1 1 1 1 1 1 1 1 1 
1 1 1 1 1 1 1 1 1 
1 1 1 1 1 1 1 1 1 
1 1 1 1 1 1 1 1 1 
1 1 1 1 1 1 1 1 1 
1 1 1 1 1 1 1 1 1 
1 1 1 1 1 1 1 1 1 
1 1 1 1 1 1 1 1 1 
1 1 1 1 1 1 1 1 1 
1 1 1 1 1 1 1 1 1 
1 1 1 1 1 1 1 1 1 
1 1 1 1 1 1 1 1 1 
1 1 1 1 1 1 1 1 1 
1 1 1 1 1 1 1 1 1 
1 1 1 1 1 1 1 1 1 
1 1 1 1 1 1 1 1 1 
1 1 1 1 1 1 1 1 1 
1 1 1 1 1 1 1 1 1 
1 1 1 1 1 1 1 1 1 
1 1 1 1 1 1 1 1 1 
1 1 1 1 1 1 1 1 1 
1 1 1 1 1 1 1 1 1 
1 1 1 1 1 1 1 1 1 
1 1 1 1 1 1 1 1 1 
1 1 1 1 1 1 1 1 1 
1 1 1 1 1 1 1 1 1 
1 1 1 1 1 1 1 1 1 
1 1 1 1 1 1 1 1 1 
1 1 1 1 1 1 1 1 1 
1 1 1 1 1 1 1 1 1 
1 1 1 1 1 1 1 1 1 
1 1 1 1 1 1 1 1 1 
1 1 1 1 1 1 1 1 1 
1 1 1 1 1 1 1 1 1 
1 1 1 1 1 1 1 1 1 
1 1 1 1 1 1 1 1 1 
1 1 1 1 1 1 1 1 1 
1 1 1 1 1 1 1 1 1 
1 1 1 1 1 1 1 1 1 
1 1 1 1 1 1 1 1 1 
1 1 1 1 1 1 1 1 1 
1 1 1 1 1 1 1 1 1 
1 1 1 1 1 1 1 1 1 
1 1 1 1 1 1 1 1 1 
1 1 1 1 1 1 1 1 1 
1 1 1 1 1 1 1 1 1 
1 1 1 1 1 1 1 1 1 
1 1 1 1 1 1 1 1 1 
1 1 1 1 1 1 1 1 1 
1 1 1 1 1 1 1 1 1 
1 1 1 1 1 1 1 1 1 
1 1 1 1 1 1 1 1 1 
1 1 1 1 1 1 1 1 1 
1 1 1 1 1 1 1 1 1 
1 1 1 1 1 1 1 1 1 
1 1 1 1 1 1 1 1 1 
1 1 1 1 1 1 1 1 1 
1 1 1 1 1 1 1 1 1 
1 1 1 1 1 1 1 1 1 
1 1 1 1 1 1 1 1 1 
1 1 1 1 1 1 1 1 1 
1 1 1 1 1 1 1 1 1 
1 1 1 1 1 1 1 1 1 
1 1 1 1 1 1 1 1 1 
1 1 1 1 1 1 1 1 1 
1 1 1 1 1 1 1 1 1 
1 1 1 1 1 1 1 1 1 
1 1 1 1 1 1 1 1 1 
1 1 1 1 1 1 1 1 1 
1 1 1 1 1 1 1 1 1 
1 1 1 1 1 1 1 1 1 
1 1 1 1 1 1 1 1 1 
1 1 1 1 1 1 1 1 1 
1 1 1 1 1 1 1 1 1 
1 1 1 1 1 1 1 1 1 
1 1 1 1 1 1 1 1 1 
1 1 1 1 1 1 1 1 1 
1 1 1 1 1 1 1 1 1 
1 1 1 1 1 1 1 1 1 
1 1 1 1 1 1 1 1 1 
1 1 1 1 1 1 1 1 1 
1 1 1 1 1 1 1 1 1 
1 1 1 1 1 1 1 1 1 
1 1 1 1 1 1 1 1 1 
1 1 1 1 1 1 1 1 1 
1 1 1 1 1 1 1 1 1 
1 1 1 1 1 1 1 1 1 
1 1 1 1 1 1 1 1 1 
1 1 1 1 1 1 1 1 1 
1 1 1 1 1 1 1 1 1 
1 1 1 1 1 1 1 1 1 
1 1 1 1 1 1 1 1 1 
1 1 1 1 1 1 1 1 1 
1 1 1 1 1 1 1 1 1 
1 1 1 1 1 1 1 1 1 
1 1 1 1 1 1 1 1 1 
1 1 1 1 1 1 1 1 1 
1 1 1 1 1 1 1 1 1 
1 1 1 1 1 1 1 1 1 
1 1 1 1 1 1 1 1 1 
1 1 1 1 1 1 1 1 1 
1 1 1 1 1 1 1 1 1 
1 1 1 1 1 1 1 1 1 
1 1 1 1 1 1 1 1 1 
1 1 1 1 1 1 1 1 1 
1 1 1 1 1 1 1 1 1 
1 1 1 1 1 1 1 1 1 
1 1 1 1 1 1 1 1 1 
1 1 1 1 1 1 1 1 1 
1 1 1 1 1 1 1 1 1 
1 1 1 1 1 1 1 1 1 
1 1 1 1 1 1 1 1 1 
1 1 1 1 1 1 1 1 1 
1 1 1 1 1 1 1 1 1 
1 1 1 1 1 1 1 1 1 
1 1 1 1 1 1 1 1 1 
1 1 1 1 1 1 1 1 1 
1 1 1 1 1 1 1 1 1 
1 1 1 1 1 1 1 1 1 
1 1 1 1 1 1 1 1 1 
1 1 1 1 1 1 1 1 1 
1 1 1 1 1 1 1 1 1 
1 1 1 1 1 1 1 1 1 
1 1 1 1 1 1 1 1 1 
1 1 1 1 1 1 1 1 1 
1 1 1 1 1 1 1 1 1 
1 1 1 1 1 1 1 1 1 
1 1 1 1 1 1 1 1 1 
1 1 1 1 1 1 1 1 1 
1 1 1 1 1 1 1 1 1 
1 1 1 1 1 1 1 1 1 
1 1 1 1 1 1 1 1 1 
1 1 1 1 1 1 1 1 1 
1 1 1 1 1 1 1 1 1 
1 1 1 1 1 1 1 1 1 
1 1 1 1 1 1 1 1 1 
1 1 1 1 1 1 1 1 1 
1 1 1 1 1 1 1 1 1 
1 1 1 1 1 1 1 1 1 
1 1 1 1 1 1 1 1 1 
1 1 1 1 1 1 1 1 1 
1 1 1 1 1 1 1 1 1 
1 1 1 1 1 1 1 1 1 
1 1 1 1 1 1 1 1 1 
1 1 1 1 1 1 1 1 1 
1 1 1 1 1 1 1 1 1 
1 1 1 1 1 1 1 1 1 
1 1 1 1 1 1 1 1 1 
1 1 1 1 1 1 1 1 1 
1 1 1 1 1 1 1 1 1 
1 1 1 1 1 1 1 1 1 
1 1 1 1 1 1 1 1 1 
1 1 1 1 1 1 1 1 1 
1 1 1 1 1 1 1 1 1 
1 1 1 1 1 1 1 1 1 
1 1 1 1 1 1 1 1 1 
1 1 1 1 1 1 1 1 1 
1 1 1 1 1 1 1 1 1 
1 1 1 1 1 1 1 1 1 
1 1 1 1 1 1 1 1 1 
1 1 1 1 1 1 1 1 1 
1 1 1 1 1 1 1 1 1 
1 1 1 1 1 1 1 1 1 
1 1 1 1 1 1 1 1 1 
1 1 1 1 1 1 1 1 1 
1 1 1 1 1 1 1 1 1 
1 1 1 1 1 1 1 1 1 
1 1 1 1 1 1 1 1 1 
1 1 1 1 1 1 1 1 1 
1 1 1 1 1 1 1 1 1 
1 1 1 1 1 1 1 1 1 
1 1 1 1 1 1 1 1 1 
1 1 1 1 1 1 1 1 1 
1 1 1 1 1 1 1 1 1 
1 1 1 1 1 1 1 1 1 
1 1 1 1 1 1 1 1 1 
1 1 1 1 1 1 1 1 1 
1 1 1 1 1 1 1 1 1 
1 1 1 1 1 1 1 1 1 
1 1 1 1 1 1 1 1 1 
1 1 1 1 1 1 1 1 1 
1 1 1 1 1 1 1 1 1 
1 1 1 1 1 1 1 1 1 
1 1 1 1 1 1 1 1 1 
1 1 1 1 1 1 1 1 1 
1 1 1 1 1 1 1 1 1 
1 1 1 1 1 1 1 1 1 
1 1 1 1 1 1 1 1 1 
1 1 1 1 1 1 1 1 1 
1 1 1 1 1 1 1 1 1 
1 1 1 1 1 1 1 1 1 
1 1 1 1 1 1 1 1 1 
1 1 1 1 1 1 1 1 1 
1 1 1 1 1 1 1 1 1 
1 1 1 1 1 1 1 1 1 
1 1 1 1 1 1 1 1 1 
1 1 1 1 1 1 1 1 1 
1 1 1 1 1 1 1 1 1 
1 1 1 1 1 1 1 1 1 
1 1 1 1 1 1 1 1 1 
1 1 1 1 1 1 1 1 1 
1 1 1 1 1 1 1 1 1 
1 1 1 1 1 1 1 1 1 
1 1 1 1 1 1 1 1 1 
1 1 1 1 1 1 1 1 1 
1 1 1 1 1 1 1 1 1 
1 1 1 1 1 1 1 1 1 
1 1 1 1 1 1 1 1 1 
1 1 1 1 1 1 1 1 1 
1 1 1 1 1 1 1 1 1 
1 1 1 1 1 1 1 1 1 
1 1 1 1 1 1 1 1 1 
1 1 1 1 1 1 1 1 1 
1 1 1 1 1 1 1 1 1 
1 1 1 1 1 1 1 1 1 
1 1 1 1 1 1 1 1 1 
1 1 1 1 1 1 1 1 1 
1 1 1 1 1 1 1 1 1 
1 1 1 1 1 1 1 1 1 
1 1 1 1 1 1 1 1 1 
1 1 1 1 1 1 1 1 1 
1 1 1 1 1 1 1 1 1 
1 1 1 1 1 1 1 1 1 
1 1 1 1 1 1 1 1 1 
1 1 1 1 1 1 1 1 1 
1 1 1 1 1 1 1 1 1 
1 1 1 1 1 1 1 1 1 
1 1 1 1 1 1 1 1 1 
1 1 1 1 1 1 1 1 1 
1 1 1 1 1 1 1 1 1 
1 1 1 1 1 1 1 1 1 
1 1 1 1 1 1 1 1 1 
1 1 1 1 1 1 1 1 1 
1 1 1 1 1 1 1 1 1 
1 1 1 1 1 1 1 1 1 
1 1 1 1 1 1 1 1 1 
1 1 1 1 1 1 1 1 1 
1 1 1 1 1 1 1 1 1 
1 1 1 1 1 1 1 1 1 
1 1 1 1 1 1 1 1 1 
1 1 1 1 1 1 1 1 1 
1 1 1 1 1 1 1 1 1 
1 1 1 1 1 1 1 1 1 
1 1 1 1 1 1 1 1 1 
1 1 1 1 1 1 1 1 1 
1 1 1 1 1 1 1 1 1 
1 1 1 1 1 1 1 1 1 
1 1 1 1 1 1 1 1 1 
1 1 1 1 1 1 1 1 1 
1 1 1 1 1 1 1 1 1 
1 1 1 1 1 1 1 1 1 
1 1 1 1 1 1 1 1 1 
1 1 1 1 1 1 1 1 1 
1 1 1 1 1 1 1 1 1 
1 1 1 1 1 1 1 1 1 
1 1 1 1 1 1 1 1 1 
1 1 1 1 1 1 1 1 1 
1 1 1 1 1 1 1 1 1 
1 1 1 1 1 1 1 1 1 
1 1 1 1 1 1 1 1 1 
1 1 1 1 1 1 1 1 1 
1 1 1 1 1 1 1 1 1 
1 1 1 1 1 1 1 1 1 
1 1 1 1 1 1 1 1 1 
1 1 1 1 1 1 1 1 1 
1 1 1 1 1 1 1 1 1 
1 1 1 1 1 1 1 1 1 
1 1 1 1 1 1 1 1 1 
1 1 1 1 1 1 1 1 1 
1 1 1 1 1 1 1 1 1 
1 1 1 1 1 1 1 1 1 
1 1 1 1 1 1 1 1 1 
1 1 1 1 1 1 1 1 1 
1 1 1 1 1 1 1 1 1 
1 1 1 1 1 1 1 1 1 
1 1 1 1 1 1 1 1 1 
1 1 1 1 1 1 1 1 1 
1 1 1 1 1 1 1 1 1 
1 1 1 1 1 1 1 1 1 
1 1 1 1 1 1 1 1 1 
1 1 1 1 1 1 1 1 1 
1 1 1 1 1 1 1 1 1 
1 1 1 1 1 1 1 1 1 
1 1 1 1 1 1 1 1 1 
1 1 1 1 1 1 1 1 1 
1 1 1 1 1 1 1 1 1 
1 1 1 1 1 1 1 1 1 
1 1 1 1 1 1 1 1 1 
1 1 1 1 1 1 1 1 1 
1 1 1 1 1 1 1 1 1 
1 1 1 1 1 1 1 1 1 
1 1 1 1 1 1 1 1 1 
1 1 1 1 1 1 1 1 1 
1 1 1 1 1 1 1 1 1 
1 1 1 1 1 1 1 1 1 
1 1 1 1 1 1 1 1 1 
1 1 1 1 1 1 1 1 1 
1 1 1 1 1 1 1 1 1 
1 1 1 1 1 1 1 1 1 
1 1 1 1 1 1 1 1 1 
1 1 1 1 1 1 1 1 1 
1 1 1 1 1 1 1 1 1 
1 1 1 1 1 1 1 1 1 
1 1 1 1 1 1 1 1 1 
1 1 1 1 1 1 1 1 1 
1 1 1 1 1 1 1 1 1 
1 1 1 1 1 1 1 1 1 
1 1 1 1 1 1 1 1 1 
1 1 1 1 1 1 1 1 1 
1 1 1 1 1 1 1 1 1 
1 1 1 1 1 1 1 1 1 
1 1 1 1 1 1 1 1 1 
1 1 1 1 1 1 1 1 1 
1 1 1 1 1 1 1 1 1 
1 1 1 1 1 1 1 1 1 
1 1 1 1 1 1 1 1 1 
1 1 1 1 1 1 1 1 1 
1 1 1 1 1 1 1 1 1 
1 1 1 1 1 1 1 1 1 
1 1 1 1 1 1 1 1 1 
1 1 1 1 1 1 1 1 1 
1 1 1 1 1 1 1 1 1 
1 1 1 1 1 1 1 1 1 
1 1 1 1 1 1 1 1 1 
1 1 1 1 1 1 1 1 1 
1 1 1 1 1 1 1 1 1 
1 1 1 1 1 1 1 1 1 
1 1 1 1 1 1 1 
NORMALS normals float
0 -0.0227214 -0.999742 0 -0.707107 -0.707107 -0.568503 -0.581724 -0.581724 
0.698841 -0.0162521 -0.715093 -0.0227214 0 -0.999742 -0.581724 -0.568503 -0.581724 
-0.581724 -0.568503 -0.581724 0.0227155 0.0227155 -0.999484 0.707016 0.0160685 -0.707016 
-0.0227155 -0.0227155 -0.999484 -0.0160685 -0.707016 -0.707016 -0.707016 -0.0160685 -0.707016 
0.0227214 0 -0.999742 0.0162521 -0.698841 -0.715093 0.707107 0 -0.707107 
0 -0.0227214 -0.999742 -0.568503 -0.581724 -0.581724 -0.568503 -0.581724 -0.581724 
0.563822 0.577246 -0.590671 0.577246 0.563822 -0.590671 0.0160685 0.707016 -0.707016 
0 0 -1 -0.698933 0 -0.715187 0.698933 0 -0.715187 
0.707107 0 -0.707107 -0.0227214 0 -0.999742 -0.581724 -0.568503 -0.581724 
-0.999742 0 -0.0227214 0.0227155 0.0227155 -0.999484 0.707016 0.0160685 -0.707016 
-0.0227155 0.0227155 -0.999484 -0.707016 0.0160685 -0.707016 0.707107 0 -0.707107 
0.0227214 0 -0.999742 0.707107 0 -0.707107 -0.0162521 0.698841 -0.715093 
0.0160685 0.707016 -0.707016 -0.0160685 0.707016 -0.707016 0.0162521 0.698841 -0.715093 
0 -0.0227214 -0.999742 0 -0.999742 -0.0227214 -0.698841 -0.715093 -0.0162521 
0.568503 -0.581724 -0.581724 0 -0.0227214 -0.999742 0 -0.999742 -0.0227214 
-0.568503 -0.581724 -0.581724 0.698841 -0.715093 -0.0162521 -0.0227155 -0.0227155 -0.999484 
-0.0227155 -0.999484 -0.0227155 -0.707016 -0.707016 -0.0160685 0 -0.0227214 -0.999742 
0 -0.999742 -0.0227214 0 -0.0227214 -0.999742 -0.698841 -0.715093 -0.0162521 
0 0 -1 0.568503 -0.581724 -0.581724 0 -0.0227214 -0.999742 
0 -0.0227214 -0.999742 0 -0.707107 -0.707107 0 -0.0227214 -0.999742 
-0.568503 -0.581724 -0.581724 0 0 -1 0.698841 -0.715093 -0.0162521 
0 -0.0227214 -0.999742 0.0227155 -0.0227155 -0.999484 0.0227155 -0.999484 -0.0227155 
0.999484 -0.0227155 -0.0227155 -0.0160685 -0.707016 -0.707016 -0.707016 -0.707016 -0.0160685 
-0.707016 -0.707016 -0.0160685 0 0 -1 0 0 -1 
0 0 -1 0 0 -1 0 0 -1 
0 0 -1 0 0 -1 0 0 -1 
0 0 -1 0.0227214 0 -0.999742 0.999742 0 -0.0227214 
-0.57735 -0.57735 -0.57735 -0.707016 -0.707016 -0.0160685 -0.707016 -0.707016 -0.0160685 
0.698933 0 -0.715187 0 0 -1 0 0 -1 
0 0 -1 0 0 -1 0 0 -1 
0 0 -1 0 -0.698933 -0.715187 0 -0.698933 -0.715187 
0.0227214 0 -0.999742 0.999742 0 -0.0227214 -0.57735 -0.57735 -0.57735 
-0.707016 -0.707016 -0.0160685 -0.707016 -0.707016 -0.0160685 0.698933 0 -0.715187 
0 0 -1 0 0 -1 0 0 -1 
0 0 -1 0 0 -1 -0.698933 0 -0.715187 
0.707107 0 -0.707107 0.999742 0 -0.0227214 -0.57735 -0.57735 -0.57735 
-0.707016 -0.707016 -0.0160685 -0.999484 -0.0227155 -0.0227155 0.572875 0.572875 -0.586198 
0 0.698933 -0.715187 0 0 -1 0 0 -1 
0 0 -1 0 0 -1 0 0 -1 
0 0 -1 -0.698933 0 -0.715187 0.698933 0 -0.715187 
0.0227214 0 -0.999742 0.999742 0 -0.0227214 -1 0 0 
0.698933 0 -0.715187 0 0 -1 0 0 -1 
0 0 -1 0 0 -1 0 0 -1 
0 0 -1 0 0 -1 -0.698933 0 -0.715187 
0.707107 0 -0.707107 0.999742 0 -0.0227214 -0.0162521 0.698841 -0.715093 
-0.999742 0 -0.0227214 0 0.698933 -0.715187 0 0 -1 
0 0 -1 0 0 -1 0 0 -1 
0 0 -1 0 0 -1 0 0 -1 
0 0 -1 0 0 -1 0 0.698933 -0.715187 
0 0.698933 -0.715187 0.0227155 0.0227155 -0.999484 0.999484 0.0227155 -0.0227155 
-0.0227214 0 -0.999742 -0.999742 0 -0.0227214 0 0 -1 
0 0 -1 0 0 -1 0 0 -1 
0 0 -1 0 0 -1 0 0 -1 
0 0 -1 0 0 -1 0 0 -1 
0 0 -1 0.0227155 0.0227155 -0.999484 0.707016 0.707016 -0.0160685 
0.707016 0.707016 -0.0160685 -0.0227214 0 -0.999742 -0.999742 0 -0.0227214 
0 0 -1 0 0 -1 0 0 -1 
0 0 -1 0 0 -1 0 0 -1 
0 0 -1 0 0 -1 0 0 -1 
0 0 -1 0.0227155 0.0227155 -0.999484 0.707016 0.707016 -0.0160685 
0.707016 0.707016 -0.0160685 -0.0227155 0.0227155 -0.999484 -0.999484 0.0227155 -0.0227155 
0 0.0227214 -0.999742 0 0.0227214 -0.999742 0 0.0227214 -0.999742 
0 0 -1 0 0 -1 0 0 -1 
0 0 -1 0 0.0227214 -0.999742 0 0.0227214 -0.999742 
0.0227155 0.0227155 -0.999484 0.57735 0.57735 -0.57735 0.57735 0.57735 -0.57735 
-0.0227155 0.999484 -0.0227155 0 0.999742 -0.0227214 0 0.999742 -0.0227214 
-0.568503 0.581724 -0.581724 -0.581724 0.568503 -0.581724 -0.0227214 0 -0.999742 
0 0 -1 0 0 -1 0.0227155 0.0227155 -0.999484 
0.707016 0.707016 -0.0160685 0.698841 0.715093 -0.0162521 0 0.707107 -0.707107 
0.0227155 0.999484 -0.0227155 -0.0227155 0.0227155 -0.999484 -0.999484 0.0227155 -0.0227155 
0 0.0227214 -0.999742 0.0227155 0.0227155 -0.999484 0.707016 0.707016 -0.0160685 
0.707016 0.707016 -0.0160685 -0.0227155 0.999484 -0.0227155 0 0.999742 -0.0227214 
0.0227155 0.999484 -0.0227155 -0.0227155 -0.999484 0.0227155 -0.707016 -0.707016 0.0160685 
0.572875 -0.586198 -0.572875 0 -1 0 0 -0.715187 -0.698933 
0 -1 0 -0.572875 -0.586198 -0.572875 0 -1 0 
0.0227155 -0.999484 0.0227155 0.707016 -0.707016 0.0160685 -0.0227214 -0.999742 0 
-0.707107 -0.707107 0 0 -1 0 -0.698933 -0.715187 0 
0.698933 -0.715187 0 0.0227214 -0.999742 0 0.999742 -0.0227214 0 
-0.707107 -0.707107 0 -0.707107 -0.707107 0 1 0 0 
-0.707107 -0.707107 0 -0.707107 -0.707107 0 1 0 0 
-0.707107 -0.707107 0 -0.707107 -0.707107 0 1 0 0 
-0.707107 -0.707107 0 -0.999742 -0.0227214 0 1 0 0 
-1 0 0 1 0 0 -1 0 0 
0.999742 0.0227214 0 -1 0 0 0.581724 0.581724 -0.568503 
0.581724 0.581724 -0.568503 -1 0 0 0.586198 0.572875 -0.572875 
0.581724 0.581724 -0.568503 -0.999742 0.0227214 0 0.57735 0.57735 -0.57735 
0.707016 0.0160685 -0.707016 -0.0162521 0.715093 -0.698841 0 0.715187 -0.698933 
-0.572875 0.586198 -0.572875 -0.57735 0.57735 -0.57735 -0.57735 0.57735 -0.57735 
0.0162521 0.715093 -0.698841 0 0.715187 -0.698933 0 0.707107 -0.707107 
0 0.707107 -0.707107 0.568503 0.581724 -0.581724 0.572875 0.586198 -0.572875 
0.0160685 0.707016 -0.707016 -0.57735 0.57735 -0.57735 -0.581724 0.581724 -0.568503 
0.581724 0.581724 -0.568503 0.581724 0.581724 -0.568503 0 0.707107 -0.707107 
-0.0227214 0.999742 0 0 1 0 0.0227214 0.999742 0 
-0.0160685 -0.707016 0.707016 0 -0.715187 0.698933 0 -0.715187 0.698933 
0 -0.715187 0.698933 0.0160685 -0.707016 0.707016 -0.0227214 -0.999742 0 
-0.707107 -0.707107 0 0 -1 0 0 -1 0 
0 -0.715187 0.698933 0 -0.715187 0.698933 0 -0.715187 0.698933 
0 -0.715187 0.698933 0 -0.715187 0.698933 0 -1 0 
0.0227214 -0.999742 0 0.999742 -0.0227214 0 -0.707107 -0.707107 0 
-0.707107 -0.707107 0 1 0 0 -0.707107 -0.707107 0 
-0.707107 -0.707107 0 1 0 0 -0.707107 -0.707107 0 
-0.707107 -0.707107 0 1 0 0 -0.707107 -0.707107 0 
-0.999742 -0.0227214 0 1 0 0 -1 0 0 
1 0 0 -1 0 0 1 0 0 
-1 0 0 0.581724 0.568503 -0.581724 0.999742 0 -0.0227214 
-1 0 0 0.572875 0.572875 -0.586198 0.0227155 0.0227155 -0.999484 
0.999484 0.0227155 -0.0227155 -0.715187 0 -0.698933 0.707016 0.0160685 -0.707016 
0.707016 0.707016 -0.0160685 0.707016 0.707016 -0.0160685 -0.0162521 0.698841 -0.715093 
-0.707107 0 -0.707107 0 0.698933 -0.715187 -0.572875 0.572875 -0.586198 
0 0.698933 -0.715187 0.572875 0.572875 -0.586198 0.0160685 0.707016 -0.707016 
0.707016 0.707016 -0.0160685 0.707016 0.707016 -0.0160685 -0.0227155 0.0227155 -0.999484 