# vtk DataFile Version 3.0
vtk output
ASCII
DATASET POLYDATA
POINTS 7678 float
91 127 100.029 91 126.029 101 90.0294 127 101 
92 127 100.029 92 126.029 101 93 127 100.029 
93 126.029 101 94 127 100.029 94 126.029 101 
94.9706 127 101 91 127.971 101 92 127.971 101 
93 127.971 101 93.0294 128 101 94 128 100.029 
94.9706 128 101 94 129 100.029 93.0294 129 101 
95 128.029 101 95 129 100.029 96 129 100.029 
96 128.029 101 96.9706 129 101 94 129.971 101 
95 129.971 101 95.0294 130 101 96 130 100.029 
96.9706 130 101 96 131 100.029 95.0294 131 101 
97 130.029 101 97 131 100.029 97.9706 131 101 
96 131.971 101 97 131.971 101 98 139 100.029 
98 138.029 101 97.0294 139 101 98.9706 139 101 
98 140 100.029 97.0294 140 101 98.9706 140 101 
98 141 100.029 97.0294 141 101 99 140.029 101 
99 141 100.029 99.9706 141 101 98 141.971 101 
99 141.971 101 100 141.029 101 99.0294 142 101 
100 142 100.029 100.971 142 101 100 143 100.029 
99.0294 143 101 101 142.029 101 101 143 100.029 
101.971 143 101 100 143.971 101 101 143.971 101 
102 143.029 101 101.029 144 101 102 144 100.029 
102.971 144 101 102 145 100.029 101.029 145 101 
103 144.029 101 103 145 100.029 103.971 145 101 
102 145.971 101 103 145.971 101 104 147 100.029 
104 146.029 101 103.029 147 101 104.971 147 101 
104 148 100.029 103.029 148 101 104.971 148 101 
104 149 100.029 103.029 149 101 104.971 149 101 
104 150 100.029 103.029 150 101 104.971 150 101 
91 151 100.029 91 150.029 101 90.0294 151 101 
92 151 100.029 92 150.029 101 92.9706 151 101 
104 151 100.029 103.029 151 101 104.971 151 101 
91 151.971 101 91.0294 152 101 92 152 100.029 
92.9706 152 101 104 152 100.029 103.029 152 101 
104.971 152 101 92 153 100.029 91.0294 153 101 
92.9706 153 101 104 153 100.029 103.029 153 101 
104.971 153 101 92 154 100.029 91.0294 154 101 
92.9706 154 101 104 153.971 101 92 155 100.029 
91.0294 155 101 92.9706 155 101 92 156 100.029 
91.0294 156 101 92.9706 156 101 92 157 100.029 
91.0294 157 101 92.9706 157 101 92 158 100.029 
91.0294 158 101 92.9706 158 101 92 159 100.029 
91.0294 159 101 92.9706 159 101 92 160 100.029 
91.0294 160 101 92.9706 160 101 92 161 100.029 
91.0294 161 101 92.9706 161 101 92 162 100.029 
91.0294 162 101 92.9706 162 101 92 163 100.029 
91.0294 163 101 92.9706 163 101 92 163.971 101 
100 165 100.029 100 164.029 101 99.0294 165 101 
101 165 100.029 101 164.029 101 101.971 165 101 
100 166 100.029 99.0294 166 101 100.971 166 101 
101 165.971 101 100 167 100.029 99.0294 167 101 
100.971 167 101 100 168 100.029 99.0294 168 101 
100.971 168 101 100 169 100.029 99.0294 169 101 
100.971 169 101 100 169.971 101 101 88 101.029 
101 87.0294 102 100.029 88 102 102 88 101.029 
102 87.0294 102 102.971 88 102 100 89 101.029 
100 88.0294 102 99.0294 89 102 101 89 101.029 
102 89 101.029 102.971 89 102 99 90 101.029 
99 89.0294 102 98.0294 90 102 100 90 101.029 
101 90 101.029 102 90 101.029 102.971 90 102 
92 91 101.029 92 90.0294 102 91.0294 91 102 
92.9706 91 102 98 91 101.029 98 90.0294 102 
97.0294 91 102 99 91 101.029 100 91 101.029 
101 91 101.029 102 91 101.029 102.971 91 102 
91 92 101.029 91 91.0294 102 90.0294 92 102 
92 92 101.029 93 91.0294 102 93 92 101.029 
94 92 101.029 94 91.0294 102 95 92 101.029 
95 91.0294 102 96 92 101.029 96 91.0294 102 
97 92 101.029 97 91.0294 102 98 92 101.029 
99 92 101.029 100 92 101.029 101 92 101.029 
102 92 101.029 102.971 92 102 91 93 101.029 
90.0294 93 102 92 93 101.029 93 93 101.029 
94 93 101.029 95 93 101.029 96 93 101.029 
97 93 101.029 98 93 101.029 99 93 101.029 
100 93 101.029 101 93 101.029 101.971 93 102 
102 92.9706 102 91 94 101.029 90.0294 94 102 
92 94 101.029 93 94 101.029 94 94 101.029 
95 94 101.029 96 94 101.029 97 94 101.029 
98 94 101.029 99 94 101.029 100 94 101.029 
100.971 94 102 101 93.9706 102 90 95 101.029 
90 94.0294 102 89.0294 95 102 91 95 101.029 
92 95 101.029 93 95 101.029 94 95 101.029 
95 95 101.029 96 95 101.029 97 95 101.029 
98 95 101.029 99 95 101.029 99.9706 95 102 
100 94.9706 102 89 96 101.029 89 95.0294 102 
88.0294 96 102 90 96 101.029 91 96 101.029 
92 96 101.029 93 96 101.029 94 96 101.029 
94.9706 96 102 95 95.9706 102 96 95.9706 102 
97 95.9706 102 98 95.9706 102 99 95.9706 102 
89 97 101.029 88.0294 97 102 90 97 101.029 
91 97 101.029 92 97 101.029 93 97 101.029 
94 97 101.029 94.9706 97 102 89 98 101.029 
88.0294 98 102 90 98 101.029 91 98 101.029 
92 98 101.029 93 98 101.029 94 98 101.029 
95 97.0294 102 95 98 101.029 96 98 101.029 
96 97.0294 102 96.9706 98 102 89 99 101.029 
88.0294 99 102 90 99 101.029 91 99 101.029 
92 99 101.029 93 99 101.029 94 99 101.029 
95 99 101.029 96 99 101.029 96.9706 99 102 
89 100 101.029 88.0294 100 102 90 100 101.029 
91 100 101.029 92 100 101.029 93 100 101.029 
94 100 101.029 95 100 101.029 96 100 101.029 
97 99.0294 102 97 100 101.029 98 100 101.029 
98 99.0294 102 98.9706 100 102 89 101 101.029 
88.0294 101 102 90 101 101.029 91 101 101.029 
92 101 101.029 93 101 101.029 94 101 101.029 
95 101 101.029 96 101 101.029 97 101 101.029 
98 101 101.029 98.9706 101 102 89 102 101.029 
88.0294 102 102 90 102 101.029 91 102 101.029 
92 102 101.029 93 102 101.029 94 102 101.029 
95 102 101.029 96 102 101.029 97 102 101.029 
98 102 101.029 99 101.029 102 99 102 101.029 
100 102 101.029 100 101.029 102 100.971 102 102 
89 103 101.029 88.0294 103 102 90 103 101.029 
91 103 101.029 92 103 101.029 93 103 101.029 
94 103 101.029 95 103 101.029 96 103 101.029 
97 103 101.029 98 103 101.029 99 103 101.029 
99.9706 103 102 100 102.971 102 89 104 101.029 
88.0294 104 102 90 104 101.029 91 104 101.029 
92 104 101.029 93 104 101.029 94 104 101.029 
95 104 101.029 96 104 101.029 97 104 101.029 
98 104 101.029 98.9706 104 102 99 103.971 102 
89 105 101.029 88.0294 105 102 90 105 101.029 
91 105 101.029 92 105 101.029 93 105 101.029 
94 105 101.029 95 105 101.029 96 105 101.029 
97 105 101.029 97.9706 105 102 98 104.971 102 
89 106 101.029 88.0294 106 102 90 106 101.029 
91 106 101.029 92 106 101.029 93 106 101.029 
94 106 101.029 95 106 101.029 96 106 101.029 
96.9706 106 102 97 105.971 102 89 107 101.029 
88.0294 107 102 90 107 101.029 91 107 101.029 
92 107 101.029 93 107 101.029 94 107 101.029 
95 107 101.029 96 107 101.029 96.9706 107 102 
89 108 101.029 88.0294 108 102 90 108 101.029 
91 108 101.029 92 108 101.029 93 108 101.029 
94 108 101.029 95 108 101.029 96 108 101.029 
96.9706 108 102 89 109 101.029 88.0294 109 102 
90 109 101.029 91 109 101.029 92 109 101.029 
93 109 101.029 94 109 101.029 95 109 101.029 
96 109 101.029 96.9706 109 102 89 110 101.029 
88.0294 110 102 90 110 101.029 91 110 101.029 
92 110 101.029 93 110 101.029 94 110 101.029 
95 110 101.029 96 110 101.029 96.9706 110 102 
89 111 101.029 88.0294 111 102 90 111 101.029 
91 111 101.029 92 111 101.029 93 111 101.029 
94 111 101.029 95 111 101.029 96 111 101.029 
96.9706 111 102 89 112 101.029 88.0294 112 102 
90 112 101.029 91 112 101.029 92 112 101.029 
93 112 101.029 94 112 101.029 95 112 101.029 
96 112 101.029 96.9706 112 102 89 113 101.029 
88.0294 113 102 90 113 101.029 91 113 101.029 
92 113 101.029 93 113 101.029 94 113 101.029 
95 113 101.029 96 113 101.029 96.9706 113 102 
89 114 101.029 88.0294 114 102 90 114 101.029 
91 114 101.029 92 114 101.029 93 114 101.029 
94 114 101.029 95 114 101.029 96 114 101.029 
96.9706 114 102 89 115 101.029 88.0294 115 102 
90 115 101.029 91 115 101.029 92 115 101.029 
93 115 101.029 94 115 101.029 95 115 101.029 
96 115 101.029 96.9706 115 102 89 116 101.029 
88.0294 116 102 90 116 101.029 91 116 101.029 
92 116 101.029 93 116 101.029 94 116 101.029 
95 116 101.029 96 116 101.029 96.9706 116 102 
89 117 101.029 88.0294 117 102 90 117 101.029 
91 117 101.029 92 117 101.029 93 117 101.029 
94 117 101.029 95 117 101.029 95.9706 117 102 
96 116.971 102 89 118 101.029 88.0294 118 102 
90 118 101.029 91 118 101.029 92 118 101.029 
93 118 101.029 94 118 101.029 94.9706 118 102 
95 117.971 102 89 119 101.029 88.0294 119 102 
90 119 101.029 91 119 101.029 92 119 101.029 
93 119 101.029 94 119 101.029 94.9706 119 102 
89 120 101.029 88.0294 120 102 90 120 101.029 
91 120 101.029 92 120 101.029 93 120 101.029 
94 120 101.029 94.9706 120 102 88 121 101.029 
88 120.029 102 87.0294 121 102 89 121 101.029 
90 121 101.029 91 121 101.029 92 121 101.029 
93 121 101.029 94 121 101.029 94.9706 121 102 
88 121.971 102 88.0294 122 102 89 122 101.029 
90 122 101.029 91 122 101.029 92 122 101.029 
93 122 101.029 94 122 101.029 94.9706 122 102 
89 123 101.029 88.0294 123 102 90 123 101.029 
91 123 101.029 92 123 101.029 93 123 101.029 
94 123 101.029 94.9706 123 102 89 123.971 102 
90 123.971 102 90.0294 124 102 91 124 101.029 
92 124 101.029 93 124 101.029 94 124 101.029 
95 123.029 102 95 124 101.029 96 124 101.029 
96 123.029 102 96.9706 124 102 91 125 101.029 
90.0294 125 102 92 125 101.029 93 125 101.029 
94 125 101.029 95 125 101.029 96 125 101.029 
96.9706 125 102 91 126 101.029 90.0294 126 102 
92 126 101.029 93 126 101.029 94 126 101.029 
95 126 101.029 96 126 101.029 97 125.029 102 
97 126 101.029 98 126 101.029 98 125.029 102 
98.9706 126 102 90.0294 127 102 95 127 101.029 
96 127 101.029 97 127 101.029 98 127 101.029 
98.9706 127 102 91 128 101.029 90.0294 128 102 
92 128 101.029 93 128 101.029 95 128 101.029 
96 128 101.029 97 128 101.029 98 128 101.029 
98.9706 128 102 91 129 101.029 90.0294 129 102 
92 129 101.029 93 129 101.029 97 129 101.029 
98 129 101.029 98.9706 129 102 91 130 101.029 
90.0294 130 102 92 130 101.029 93 130 101.029 
94 130 101.029 95 130 101.029 97 130 101.029 
98 130 101.029 98.9706 130 102 91 131 101.029 
90.0294 131 102 92 131 101.029 93 131 101.029 
94 131 101.029 95 131 101.029 98 131 101.029 
98.9706 131 102 91 132 101.029 90.0294 132 102 
92 132 101.029 93 132 101.029 94 132 101.029 
95 132 101.029 96 132 101.029 97 132 101.029 
98 132 101.029 98.9706 132 102 91 133 101.029 
90.0294 133 102 92 133 101.029 93 133 101.029 
94 133 101.029 95 133 101.029 96 133 101.029 
97 133 101.029 98 133 101.029 98.9706 133 102 
[...]
POINT_DATA 7678
SCALARS scalars float
LOOKUP_TABLE default
1 1 1 1 1 1 1 1 1 
1 1 1 1 1 1 1 1 1 
1 1 1 1 1 1 1 1 1 
1 1 1 1 1 1 1 1 1 
1 1 1 1 1 1 1 1 1 
1 1 1 1 1 1 1 1 1 
1 1 1 1 1 1 1 1 1 
1 1 1 1 1 1 1 1 1 
1 1 1 1 1 1 1 1 1 
1 1 1 1 1 1 1 1 1 
1 1 1 1 1 1 1 1 1 
1 1 1 1 1 1 1 1 1 
1 1 1 1 1 1 1 1 1 
1 1 1 1 1 1 1 1 1 
1 1 1 1 1 1 1 1 1 
1 1 1 1 1 1 1 1 1 
1 1 1 1 1 1 1 1 1 
1 1 1 1 1 1 1 1 1 
1 1 1 1 1 1 1 1 1 
1 1 1 1 1 1 1 1 1 
1 1 1 1 1 1 1 1 1 
1 1 1 1 1 1 1 1 1 
1 1 1 1 1 1 1 1 1 
1 1 1 1 1 1 1 1 1 
1 1 1 1 1 1 1 1 1 
1 1 1 1 1 1 1 1 1 
1 1 1 1 1 1 1 1 1 
1 1 1 1 1 1 1 1 1 
1 1 1 1 1 1 1 1 1 
1 1 1 1 1 1 1 1 1 
1 1 1 1 1 1 1 1 1 
1 1 1 1 1 1 1 1 1 
1 1 1 1 1 1 1 1 1 
1 1 1 1 1 1 1 1 1 
1 1 1 1 1 1 1 1 1 
1 1 1 1 1 1 1 1 1 
1 1 1 1 1 1 1 1 1 
1 1 1 1 1 1 1 1 1 
1 1 1 1 1 1 1 1 1 
1 1 1 1 1 1 1 1 1 
1 1 1 1 1 1 1 1 1 
1 1 1 1 1 1 1 1 1 
1 1 1 1 1 1 1 1 1 
1 1 1 1 1 1 1 1 1 
1 1 1 1 1 1 1 1 1 
1 1 1 1 1 1 1 1 1 
1 1 1 1 1 1 1 1 1 
1 1 1 1 1 1 1 1 1 
1 1 1 1 1 1 1 1 1 
1 1 1 1 1 1 1 1 1 
1 1 1 1 1 1 1 1 1 
1 1 1 1 1 1 1 1 1 
1 1 1 1 1 1 1 1 1 
1 1 1 1 1 1 1 1 1 
1 1 1 1 1 1 1 1 1 
1 1 1 1 1 1 1 1 1 
1 1 1 1 1 1 1 1 1 
1 1 1 1 1 1 1 1 1 
1 1 1 1 1 1 1 1 1 
1 1 1 1 1 1 1 1 1 
1 1 1 1 1 1 1 1 1 
1 1 1 1 1 1 1 1 1 
1 1 1 1 1 1 1 1 1 
1 1 1 1 1 1 1 1 1 
1 1 1 1 1 1 1 1 1 
1 1 1 1 1 1 1 1 1 
1 1 1 1 1 1 1 1 1 
1 1 1 1 1 1 1 1 1 
1 1 1 1 1 1 1 1 1 
1 1 1 1 1 1 1 1 1 
1 1 1 1 1 1 1 1 1 
1 1 1 1 1 1 1 1 1 
1 1 1 1 1 1 1 1 1 
1 1 1 1 1 1 1 1 1 
1 1 1 1 1 1 1 1 1 
1 1 1 1 1 1 1 1 1 
1 1 1 1 1 1 1 1 1 
1 1 1 1 1 1 1 1 1 
1 1 1 1 1 1 1 1 1 
1 1 1 1 1 1 1 1 1 
1 1 1 1 1 1 1 1 1 
1 1 1 1 1 1 1 1 1 
1 1 1 1 1 1 1 1 1 
1 1 1 1 1 1 1 1 1 
1 1 1 1 1 1 1 1 1 
1 1 1 1 1 1 1 1 1 
1 1 1 1 1 1 1 1 1 
1 1 1 1 1 1 1 1 1 
1 1 1 1 1 1 1 1 1 
1 1 1 1 1 1 1 1 1 
1 1 1 1 1 1 1 1 1 
1 1 1 1 1 1 1 1 1 
1 1 1 1 1 1 1 1 1 
1 1 1 1 1 1 1 1 1 
1 1 1 1 1 1 1 1 1 
1 1 1 1 1 1 1 1 1 
1 1 1 1 1 1 1 1 1 
1 1 1 1 1 1 1 1 1 
1 1 1 1 1 1 1 1 1 
1 1 1 1 1 1 1 1 1 
1 1 1 1 1 1 1 1 1 
1 1 1 1 1 1 1 1 1 
1 1 1 1 1 1 1 1 1 
1 1 1 1 1 1 1 1 1 
1 1 1 1 1 1 1 1 1 
1 1 1 1 1 1 1 1 1 
1 1 1 1 1 1 1 1 1 
1 1 1 1 1 1 1 1 1 
1 1 1 1 1 1 1 1 1 
1 1 1 1 1 1 1 1 1 
1 1 1 1 1 1 1 1 1 
1 1 1 1 1 1 1 1 1 
1 1 1 1 1 1 1 1 1 
1 1 1 1 1 1 1 1 1 
1 1 1 1 1 1 1 1 1 
1 1 1 1 1 1 1 1 1 
1 1 1 1 1 1 1 1 1 
1 1 1 1 1 1 1 1 1 
1 1 1 1 1 1 1 1 1 
1 1 1 1 1 1 1 1 1 
1 1 1 1 1 1 1 1 1 
1 1 1 1 1 1 1 1 1 
1 1 1 1 1 1 1 1 1 
1 1 1 1 1 1 1 1 1 
1 1 1 1 1 1 1 1 1 
1 1 1 1 1 1 1 1 1 
1 1 1 1 1 1 1 1 1 
1 1 1 1 1 1 1 1 1 
1 1 1 1 1 1 1 1 1 
1 1 1 1 1 1 1 1 1 
1 1 1 1 1 1 1 1 1 
1 1 1 1 1 1 1 1 1 
1 1 1 1 1 1 1 1 1 
1 1 1 1 1 1 1 1 1 
1 1 1 1 1 1 1 1 1 
1 1 1 1 1 1 1 1 1 
1 1 1 1 1 1 1 1 1 
1 1 1 1 1 1 1 1 1 
1 1 1 1 1 1 1 1 1 
1 1 1 1 1 1 1 1 1 
1 1 1 1 1 1 1 1 1 
1 1 1 1 1 1 1 1 1 
1 1 1 1 1 1 1 1 1 
1 1 1 1 1 1 1 1 1 
1 1 1 1 1 1 1 1 1 
1 1 1 1 1 1 1 1 1 
1 1 1 1 1 1 1 1 1 
1 1 1 1 1 1 1 1 1 
1 1 1 1 1 1 1 1 1 
1 1 1 1 1 1 1 1 1 
1 1 1 1 1 1 1 1 1 
1 1 1 1 1 1 1 1 1 
1 1 1 1 1 1 1 1 1 
1 1 1 1 1 1 1 1 1 
1 1 1 1 1 1 1 1 1 
1 1 1 1 1 1 1 1 1 
1 1 1 1 1 1 1 1 1 
1 1 1 1 1 1 1 1 1 
1 1 1 1 1 1 1 1 1 
1 1 1 1 1 1 1 1 1 
1 1 1 1 1 1 1 1 1 
1 1 1 1 1 1 1 1 1 
1 1 1 1 1 1 1 1 1 
1 1 1 1 1 1 1 1 1 
1 1 1 1 1 1 1 1 1 
1 1 1 1 1 1 1 1 1 
1 1 1 1 1 1 1 1 1 
1 1 1 1 1 1 1 1 1 
1 1 1 1 1 1 1 1 1 
1 1 1 1 1 1 1 1 1 
1 1 1 1 1 1 1 1 1 
1 1 1 1 1 1 1 1 1 
1 1 1 1 1 1 1 1 1 
1 1 1 1 1 1 1 1 1 
1 1 1 1 1 1 1 1 1 
1 1 1 1 1 1 1 1 1 
1 1 1 1 1 1 1 1 1 
1 1 1 1 1 1 1 1 1 
1 1 1 1 1 1 1 1 1 
1 1 1 1 1 1 1 1 1 
1 1 1 1 1 1 1 1 1 
1 1 1 1 1 1 1 1 1 
1 1 1 1 1 1 1 1 1 
1 1 1 1 1 1 1 1 1 
1 1 1 1 1 1 1 1 1 
1 1 1 1 1 1 1 1 1 
1 1 1 1 1 1 1 1 1 
1 1 1 1 1 1 1 1 1 
1 1 1 1 1 1 1 1 1 
1 1 1 1 1 1 1 1 1 
1 1 1 1 1 1 1 1 1 
1 1 1 1 1 1 1 1 1 
1 1 1 1 1 1 1 1 1 
1 1 1 1 1 1 1 1 1 
1 1 1 1 1 1 1 1 1 
1 1 1 1 1 1 1 1 1 
1 1 1 1 1 1 1 1 1 
1 1 1 1 1 1 1 1 1 
1 1 1 1 1 1 1 1 1 
1 1 1 1 1 1 1 1 1 
1 1 1 1 1 1 1 1 1 
1 1 1 1 1 1 1 1 1 
1 1 1 1 1 1 1 1 1 
1 1 1 1 1 1 1 1 1 
1 1 1 1 1 1 1 1 1 
1 1 1 1 1 1 1 1 1 
1 1 1 1 1 1 1 1 1 
1 1 1 1 1 1 1 1 1 
1 1 1 1 1 1 1 1 1 
1 1 1 1 1 1 1 1 1 
1 1 1 1 1 1 1 1 1 
1 1 1 1 1 1 1 1 1 
1 1 1 1 1 1 1 1 1 
1 1 1 1 1 1 1 1 1 
1 1 1 1 1 1 1 1 1 
1 1 1 1 1 1 1 1 1 
1 1 1 1 1 1 1 1 1 
1 1 1 1 1 1 1 1 1 
1 1 1 1 1 1 1 1 1 
1 1 1 1 1 1 1 1 1 
1 1 1 1 1 1 1 1 1 
1 1 1 1 1 1 1 1 1 
1 1 1 1 1 1 1 1 1 
1 1 1 1 1 1 1 1 1 
1 1 1 1 1 1 1 1 1 
1 1 1 1 1 1 1 1 1 
1 1 1 1 1 1 1 1 1 
1 1 1 1 1 1 1 1 1 
1 1 1 1 1 1 1 1 1 
1 1 1 1 1 1 1 1 1 
1 1 1 1 1 1 1 1 1 
1 1 1 1 1 1 1 1 1 
1 1 1 1 1 1 1 1 1 
1 1 1 1 1 1 1 1 1 
1 1 1 1 1 1 1 1 1 
1 1 1 1 1 1 1 1 1 
1 1 1 1 1 1 1 1 1 
1 1 1 1 1 1 1 1 1 
1 1 1 1 1 1 1 1 1 
1 1 1 1 1 1 1 1 1 
1 1 1 1 1 1 1 1 1 
1 1 1 1 1 1 1 1 1 
1 1 1 1 1 1 1 1 1 
1 1 1 1 1 1 1 1 1 
1 1 1 1 1 1 1 1 1 
1 1 1 1 1 1 1 1 1 
1 1 1 1 1 1 1 1 1 
1 1 1 1 1 1 1 1 1 
1 1 1 1 1 1 1 1 1 
1 1 1 1 1 1 1 1 1 
1 1 1 1 1 1 1 1 1 
1 1 1 1 1 1 1 1 1 
1 1 1 1 1 1 1 1 1 
1 1 1 1 1 1 1 1 1 
1 1 1 1 1 1 1 1 1 
1 1 1 1 1 1 1 1 1 
1 1 1 1 1 1 1 1 1 
1 1 1 1 1 1 1 1 1 
1 1 1 1 1 1 1 1 1 
1 1 1 1 1 1 1 1 1 
1 1 1 1 1 1 1 1 1 
1 1 1 1 1 1 1 1 1 
1 1 1 1 1 1 1 1 1 
1 1 1 1 1 1 1 1 1 
1 1 1 1 1 1 1 1 1 
1 1 1 1 1 1 1 1 1 
1 1 1 1 1 1 1 1 1 
1 1 1 1 1 1 1 1 1 
1 1 1 1 1 1 1 1 1 
1 1 1 1 1 1 1 1 1 
1 1 1 1 1 1 1 1 1 
1 1 1 1 1 1 1 1 1 
1 1 1 1 1 1 1 1 1 
1 1 1 1 1 1 1 1 1 
1 1 1 1 1 1 1 1 1 
1 1 1 1 1 1 1 1 1 
1 1 1 1 1 1 1 1 1 
1 1 1 1 1 1 1 1 1 
1 1 1 1 1 1 1 1 1 
1 1 1 1 1 1 1 1 1 
1 1 1 1 1 1 1 1 1 
1 1 1 1 1 1 1 1 1 
1 1 1 1 1 1 1 1 1 
1 1 1 1 1 1 1 1 1 
1 1 1 1 1 1 1 1 1 
1 1 1 1 1 1 1 1 1 
1 1 1 1 1 1 1 1 1 
1 1 1 1 1 1 1 1 1 
1 1 1 1 1 1 1 1 1 
1 1 1 1 1 1 1 1 1 
1 1 1 1 1 1 1 1 1 
1 1 1 1 1 1 1 1 1 
1 1 1 1 1 1 1 1 1 
1 1 1 1 1 1 1 1 1 
1 1 1 1 1 1 1 1 1 
1 1 1 1 1 1 1 1 1 
1 1 1 1 1 1 1 1 1 
1 1 1 1 1 1 1 1 1 
1 1 1 1 1 1 1 1 1 
1 1 1 1 1 1 1 1 1 
1 1 1 1 1 1 1 1 1 
1 1 1 1 1 1 1 1 1 
1 1 1 1 1 1 1 1 1 
1 1 1 1 1 1 1 1 1 
1 1 1 1 1 1 1 1 1 
1 1 1 1 1 1 1 1 1 
1 1 1 1 1 1 1 1 1 
1 1 1 1 1 1 1 1 1 
1 1 1 1 1 1 1 1 1 
1 1 1 1 1 1 1 1 1 
1 1 1 1 1 1 1 1 1 
1 1 1 1 1 1 1 1 1 
1 1 1 1 1 1 1 1 1 
1 1 1 1 1 1 1 1 1 
1 1 1 1 1 1 1 1 1 
1 1 1 1 1 1 1 1 1 
1 1 1 1 1 1 1 1 1 
1 1 1 1 1 1 1 1 1 
1 1 1 1 1 1 1 1 1 
1 1 1 1 1 1 1 1 1 
1 1 1 1 1 1 1 1 1 
1 1 1 1 1 1 1 1 1 
1 1 1 1 1 1 1 1 1 
1 1 1 1 1 1 1 1 1 
1 1 1 1 1 1 1 1 1 
1 1 1 1 1 1 1 1 1 
1 1 1 1 1 1 1 1 1 
1 1 1 1 1 1 1 1 1 
1 1 1 1 1 1 1 1 1 
1 1 1 1 1 1 1 1 1 
1 1 1 1 1 1 1 1 1 
1 1 1 1 1 1 1 1 1 
1 1 1 1 1 1 1 1 1 
1 1 1 1 1 1 1 1 1 
1 1 1 1 1 1 1 1 1 
1 1 1 1 1 1 1 1 1 
1 1 1 1 1 1 1 1 1 
1 1 1 1 1 1 1 1 1 
1 1 1 1 1 1 1 1 1 
1 1 1 1 1 1 1 1 1 
1 1 1 1 1 1 1 1 1 
1 1 1 1 1 1 1 1 1 
1 1 1 1 1 1 1 1 1 
1 1 1 1 1 1 1 1 1 
1 1 1 1 1 1 1 1 1 
1 1 1 1 1 1 1 1 1 
1 1 1 1 1 1 1 1 1 
1 1 1 1 1 1 1 1 1 
1 1 1 1 1 1 1 1 1 
1 1 1 1 1 1 1 1 1 
1 1 1 1 1 1 1 1 1 
1 1 1 1 1 1 1 1 1 
1 1 1 1 1 1 1 1 1 
1 1 1 1 1 1 1 1 1 
1 1 1 1 1 1 1 1 1 
1 1 1 1 1 1 1 1 1 
1 1 1 1 1 1 1 1 1 
1 1 1 1 1 1 1 1 1 
1 1 1 1 1 1 1 1 1 
1 1 1 1 1 1 1 1 1 
1 1 1 1 1 1 1 1 1 
1 1 1 1 1 1 1 1 1 
1 1 1 1 1 1 1 1 1 
1 1 1 1 1 1 1 1 1 
1 1 1 1 1 1 1 1 1 
1 1 1 1 1 1 1 1 1 
1 1 1 1 1 1 1 1 1 
1 1 1 1 1 1 1 1 1 
1 1 1 1 1 1 1 1 1 
1 1 1 1 1 1 1 1 1 
1 1 1 1 1 1 1 1 1 
1 1 1 1 1 1 1 1 1 
1 1 1 1 1 1 1 1 1 
1 1 1 1 1 1 1 1 1 
1 1 1 1 1 1 1 1 1 
1 1 1 1 1 1 1 1 1 
1 1 1 1 1 1 1 1 1 
1 1 1 1 1 1 1 1 1 
1 1 1 1 1 1 1 1 1 
1 1 1 1 1 1 1 1 1 
1 1 1 1 1 1 1 1 1 
1 1 1 1 1 1 1 1 1 
1 1 1 1 1 1 1 1 1 
1 1 1 1 1 1 1 1 1 
1 1 1 1 1 1 1 1 1 
1 1 1 1 1 1 1 1 1 
1 1 1 1 1 1 1 1 1 
1 1 1 1 1 1 1 1 1 
1 1 1 1 1 1 1 1 1 
1 1 1 1 1 1 1 1 1 
1 1 1 1 1 1 1 1 1 
1 1 1 1 1 1 1 1 1 
1 1 1 1 1 1 1 1 1 
1 1 1 1 1 1 1 1 1 
1 1 1 1 1 1 1 1 1 
1 1 1 1 1 1 1 1 1 
1 1 1 1 1 1 1 1 1 
1 1 1 1 1 1 1 1 1 
1 1 1 1 1 1 1 1 1 
1 1 1 1 1 1 1 1 1 
1 1 1 1 1 1 1 1 1 
1 1 1 1 1 1 1 1 1 
1 1 1 1 1 1 1 1 1 
1 1 1 1 1 1 1 1 1 
1 1 1 1 1 1 1 1 1 
1 1 1 1 1 1 1 1 1 
1 1 1 1 1 1 1 1 1 
1 1 1 1 1 1 1 1 1 
1 1 1 1 1 1 1 1 1 
1 1 1 1 1 1 1 1 1 
1 1 1 1 1 1 1 1 1 
1 1 1 1 1 1 1 1 1 
1 1 1 1 1 1 1 1 1 
1 1 1 1 1 1 1 1 1 
1 1 1 1 1 1 1 1 1 
1 1 1 1 1 1 1 1 1 
1 1 1 1 1 1 1 1 1 
1 1 1 1 1 1 1 1 1 
1 1 1 1 1 1 1 1 1 
1 1 1 1 1 1 1 1 1 
1 1 1 1 1 1 1 1 1 
1 1 1 1 1 1 1 1 1 
1 1 1 1 1 1 1 1 1 
1 1 1 1 1 1 1 1 1 
1 1 1 1 1 1 1 1 1 
1 1 1 1 1 1 1 1 1 
1 1 1 1 1 1 1 1 1 
1 1 1 1 1 1 1 1 1 
1 1 1 1 1 1 1 1 1 
1 1 1 1 1 1 1 1 1 
1 1 1 1 1 1 1 1 1 
1 1 1 1 1 1 1 1 1 
1 1 1 1 1 1 1 1 1 
1 1 1 1 1 1 1 1 1 
1 1 1 1 1 1 1 1 1 
1 1 1 1 1 1 1 1 1 
1 1 1 1 1 1 1 1 1 
1 1 1 1 1 1 1 1 1 
1 1 1 1 1 1 1 1 1 
1 1 1 1 1 1 1 1 1 
1 1 1 1 1 1 1 1 1 
1 1 1 1 1 1 1 1 1 
1 1 1 1 1 1 1 1 1 
1 1 1 1 1 1 1 1 1 
1 1 1 1 1 1 1 1 1 
1 1 1 1 1 1 1 1 1 
1 1 1 1 1 1 1 1 1 
1 1 1 1 1 1 1 1 1 
1 1 1 1 1 1 1 1 1 
1 1 1 1 1 1 1 1 1 
1 1 1 1 1 1 1 1 1 
1 1 1 1 1 1 1 1 1 
1 1 1 1 1 1 1 1 1 
1 1 1 1 1 1 1 1 1 
1 1 1 1 1 1 1 1 1 
1 1 1 1 1 1 1 1 1 
1 1 1 1 1 1 1 1 1 
1 1 1 1 1 1 1 1 1 
1 1 1 1 1 1 1 1 1 
1 1 1 1 1 1 1 1 1 
1 1 1 1 1 1 1 1 1 
1 1 1 1 1 1 1 1 1 
1 1 1 1 1 1 1 1 1 
1 1 1 1 1 1 1 1 1 
1 1 1 1 1 1 1 1 1 
1 1 1 1 1 1 1 1 1 
1 1 1 1 1 1 1 1 1 
1 1 1 1 1 1 1 1 1 
1 1 1 1 1 1 1 1 1 
1 1 1 1 1 1 1 1 1 
1 1 1 1 1 1 1 1 1 
1 1 1 1 1 1 1 1 1 
1 1 1 1 1 1 1 1 1 
1 1 1 1 1 1 1 1 1 
1 1 1 1 1 1 1 1 1 
1 1 1 1 1 1 1 1 1 
1 1 1 1 1 1 1 1 1 
1 1 1 1 1 1 1 1 1 
1 1 1 1 1 1 1 1 1 
1 1 1 1 1 1 1 1 1 
1 1 1 1 1 1 1 1 1 
1 1 1 1 1 1 1 1 1 
1 1 1 1 1 1 1 1 1 
1 1 1 1 1 1 1 1 1 
1 1 1 1 1 1 1 1 1 
1 1 1 1 1 1 1 1 1 
1 1 1 1 1 1 1 1 1 
1 1 1 1 1 1 1 1 1 
1 1 1 1 1 1 1 1 1 
1 1 1 1 1 1 1 1 1 
1 1 1 1 1 1 1 1 1 
1 1 1 1 1 1 1 1 1 
1 1 1 1 1 1 1 1 1 
1 1 1 1 1 1 1 1 1 
1 1 1 1 1 1 1 1 1 
1 1 1 1 1 1 1 1 1 
1 1 1 1 1 1 1 1 1 
1 1 1 1 1 1 1 1 1 
1 1 1 1 1 1 1 1 1 
1 1 1 1 1 1 1 1 1 
1 1 1 1 1 1 1 1 1 
1 1 1 1 1 1 1 1 1 
1 1 1 1 1 1 1 1 1 
1 1 1 1 1 1 1 1 1 
1 1 1 1 1 1 1 1 1 
1 1 1 1 1 1 1 1 1 
1 1 1 1 1 1 1 1 1 
1 1 1 1 1 1 1 1 1 
1 1 1 1 1 1 1 1 1 
1 1 1 1 1 1 1 1 1 
1 1 1 1 1 1 1 1 1 
1 1 1 1 1 1 1 1 1 
1 1 1 1 1 1 1 1 1 
1 1 1 1 1 1 1 1 1 
1 1 1 1 1 1 1 1 1 
1 1 1 1 1 1 1 1 1 
1 1 1 1 1 1 1 1 1 
1 1 1 1 1 1 1 1 1 
1 1 1 1 1 1 1 1 1 
1 1 1 1 1 1 1 1 1 
1 1 1 1 1 1 1 1 1 
1 1 1 1 1 1 1 1 1 
1 1 1 1 1 1 1 1 1 
1 1 1 1 1 1 1 1 1 
1 1 1 1 1 1 1 1 1 
1 1 1 1 1 1 1 1 1 
1 1 1 1 1 1 1 1 1 
1 1 1 1 1 1 1 1 1 
1 1 1 1 1 1 1 1 1 
1 1 1 1 1 1 1 1 1 
1 1 1 1 1 1 1 1 1 
1 1 1 1 1 1 1 1 1 
1 1 1 1 1 1 1 1 1 
1 1 1 1 1 1 1 1 1 
1 1 1 1 1 1 1 1 1 
1 1 1 1 1 1 1 1 1 
1 1 1 1 1 1 1 1 1 
1 1 1 1 1 1 1 1 1 
1 1 1 1 1 1 1 1 1 
1 1 1 1 1 1 1 1 1 
1 1 1 1 1 1 1 1 1 
1 1 1 1 1 1 1 1 1 
1 1 1 1 1 1 1 1 1 
1 1 1 1 1 1 1 1 1 
1 1 1 1 1 1 1 1 1 
1 1 1 1 1 1 1 1 1 
1 1 1 1 1 1 1 1 1 
1 1 1 1 1 1 1 1 1 
1 1 1 1 1 1 1 1 1 
1 1 1 1 1 1 1 1 1 
1 1 1 1 1 1 1 1 1 
1 1 1 1 1 1 1 1 1 
1 1 1 1 1 1 1 1 1 
1 1 1 1 1 1 1 1 1 
1 1 1 1 1 1 1 1 1 
1 1 1 1 1 1 1 1 1 
1 1 1 1 1 1 1 1 1 
1 1 1 1 1 1 1 1 1 
1 1 1 1 1 1 1 1 1 
1 1 1 1 1 1 1 1 1 
1 1 1 1 1 1 1 1 1 
1 1 1 1 1 1 1 1 1 
1 1 1 1 1 1 1 1 1 
1 1 1 1 1 1 1 1 1 
1 1 1 1 1 1 1 1 1 
1 1 1 1 1 1 1 1 1 
1 1 1 1 1 1 1 1 1 
1 1 1 1 1 1 1 1 1 
1 1 1 1 1 1 1 1 1 
1 1 1 1 1 1 1 1 1 
1 1 1 1 1 1 1 1 1 
1 1 1 1 1 1 1 1 1 
1 1 1 1 1 1 1 1 1 
1 1 1 1 1 1 1 1 1 
1 1 1 1 1 1 1 1 1 
1 1 1 1 1 1 1 1 1 
1 1 1 1 1 1 1 1 1 
1 1 1 1 1 1 1 1 1 
1 1 1 1 1 1 1 1 1 
1 1 1 1 1 1 1 1 1 
1 1 1 1 1 1 1 1 1 
1 1 1 1 1 1 1 1 1 
1 1 1 1 1 1 1 1 1 
1 1 1 1 1 1 1 1 1 
1 1 1 1 1 1 1 1 1 
1 1 1 1 1 1 1 1 1 
1 1 1 1 1 1 1 1 1 
1 1 1 1 1 1 1 1 1 
1 1 1 1 1 1 1 1 1 
1 1 1 1 1 1 1 1 1 
1 1 1 1 1 1 1 1 1 
1 1 1 1 1 1 1 1 1 
1 1 1 1 1 1 1 1 1 
1 1 1 1 1 1 1 1 1 
1 1 1 1 1 1 1 1 1 
1 1 1 1 1 1 1 1 1 
1 1 1 1 1 1 1 1 1 
1 1 1 1 1 1 1 1 1 
1 1 1 1 1 1 1 1 1 
1 1 1 1 1 1 1 1 1 
1 1 1 1 1 1 1 1 1 
1 1 1 1 1 1 1 1 1 
1 1 1 1 1 1 1 1 1 
1 1 1 1 1 1 1 1 1 
1 1 1 1 1 1 1 1 1 
1 1 1 1 1 1 1 1 1 
1 1 1 1 1 1 1 1 1 
1 1 1 1 1 1 1 1 1 
1 1 1 1 1 1 1 1 1 
1 1 1 1 1 1 1 1 1 
1 1 1 1 1 1 1 1 1 
1 1 1 1 1 1 1 1 1 
1 1 1 1 1 1 1 1 1 
1 1 1 1 1 1 1 1 1 
1 1 1 1 1 1 1 1 1 
1 1 1 1 1 1 1 1 1 
1 1 1 1 1 1 1 1 1 
1 1 1 1 1 1 1 1 1 
1 1 1 1 1 1 1 1 1 
1 1 1 1 1 1 1 1 1 
1 1 1 1 1 1 1 1 1 
1 1 1 1 1 1 1 1 1 
1 1 1 1 1 1 1 1 1 
1 1 1 1 1 1 1 1 1 
1 1 1 1 1 1 1 1 1 
1 1 1 1 1 1 1 1 1 
1 1 1 1 1 1 1 1 1 
1 1 1 1 1 1 1 1 1 
1 1 1 1 1 1 1 1 1 
1 1 1 1 1 1 1 1 1 
1 1 1 1 1 1 1 1 1 
1 1 1 1 1 1 1 1 1 
1 1 1 1 1 1 1 1 1 
1 1 1 1 1 1 1 1 1 
1 1 1 1 1 1 1 1 1 
1 1 1 1 1 1 1 1 1 
1 1 1 1 1 1 1 1 1 
1 1 1 1 1 1 1 1 1 
1 1 1 1 1 1 1 1 1 
1 1 1 1 1 1 1 1 1 
1 1 1 1 1 1 1 1 1 
1 1 1 1 1 1 1 1 1 
1 1 1 1 1 1 1 1 1 
1 1 1 1 1 1 1 1 1 
1 1 1 1 1 1 1 1 1 
1 1 1 1 1 1 1 1 1 
1 1 1 1 1 1 1 1 1 
1 1 1 1 1 1 1 1 1 
1 1 1 1 1 1 1 1 1 
1 1 1 1 1 1 1 1 1 
1 1 1 1 1 1 1 1 1 
1 1 1 1 1 1 1 1 1 
1 1 1 1 1 1 1 1 1 
1 1 1 1 1 1 1 1 1 
1 1 1 1 1 1 1 1 1 
1 1 1 1 1 1 1 1 1 
1 1 1 1 1 1 1 1 1 
1 1 1 1 1 1 1 1 1 
1 1 1 1 1 1 1 1 1 
1 1 1 1 1 1 1 1 1 
1 1 1 1 1 1 1 1 1 
1 1 1 1 1 1 1 1 1 
1 1 1 1 1 1 1 1 1 
1 1 1 1 1 1 1 1 1 
1 1 1 1 1 1 1 1 1 
1 1 1 1 1 1 1 1 1 
1 1 1 1 1 1 1 1 1 
1 1 1 1 1 1 1 1 1 
1 1 1 1 1 1 1 1 1 
1 1 1 1 1 1 1 1 1 
1 1 1 1 1 1 1 1 1 
1 1 1 1 1 1 1 1 1 
1 1 1 1 1 1 1 1 1 
1 1 1 1 1 1 1 1 1 
1 1 1 1 1 1 1 1 1 
1 1 1 1 1 1 1 1 1 
1 1 1 1 1 1 1 1 1 
1 1 1 1 1 1 1 1 1 
1 1 1 1 1 1 1 1 1 
1 1 1 1 1 1 1 1 1 
1 1 1 1 1 1 1 1 1 
1 1 1 1 1 1 1 1 1 
1 1 1 1 1 1 1 1 1 
1 1 1 1 1 1 1 1 1 
1 1 1 1 1 1 1 1 1 
1 1 1 1 1 1 1 1 1 
1 1 1 1 1 1 1 1 1 
1 1 1 1 1 1 1 1 1 
1 1 1 1 1 1 1 1 1 
1 1 1 1 1 1 1 1 1 
1 1 1 1 1 1 1 1 1 
1 1 1 1 1 1 1 1 1 
1 1 1 1 1 1 1 1 1 
1 1 1 1 1 1 1 1 1 
1 1 1 1 1 1 1 1 1 
1 1 1 1 1 1 1 1 1 
1 1 1 1 1 1 1 1 1 
1 1 1 1 1 1 1 1 1 
1 1 1 1 1 1 1 1 1 
1 1 1 1 1 1 1 1 1 
1 1 1 1 1 1 1 1 1 
1 1 1 1 1 1 1 1 1 
1 1 1 1 1 1 1 1 1 
1 1 1 1 1 1 1 1 1 
1 1 1 1 1 1 1 1 1 
1 1 1 1 1 1 1 1 1 
1 1 1 1 1 1 1 1 1 
1 1 1 1 1 1 1 1 1 
1 1 1 1 1 1 1 1 1 
1 1 1 1 1 1 1 1 1 
1 1 1 1 1 1 1 1 1 
1 1 1 1 1 1 1 1 1 
1 1 1 1 1 1 1 1 1 
1 1 1 1 1 1 1 1 1 
1 1 1 1 1 1 1 1 1 
1 1 1 1 1 1 1 1 1 
1 1 1 1 1 1 1 1 1 
1 1 1 1 1 1 1 1 1 
1 1 1 1 1 1 1 1 1 
1 1 1 1 1 1 1 1 1 
1 1 1 1 1 1 1 1 1 
1 1 1 1 1 1 1 1 1 
1 1 1 1 1 1 1 1 1 
1 1 1 1 1 1 1 1 1 
1 1 1 1 1 1 1 1 1 
1 1 1 1 1 1 1 1 1 
1 1 1 1 1 1 1 1 1 
1 1 1 1 1 1 1 1 1 
1 1 1 1 1 1 1 1 1 
1 1 1 1 1 1 1 1 1 
1 1 1 1 1 1 1 1 1 
1 1 1 1 1 1 1 1 1 
1 1 1 1 1 1 1 1 1 
1 1 1 1 1 1 1 1 1 
1 1 1 1 1 1 1 1 1 
1 1 1 1 1 1 1 1 1 
1 1 1 1 1 1 1 1 1 
1 1 1 1 1 1 1 1 1 
1 1 1 1 1 1 1 1 1 
1 1 1 1 1 1 1 1 1 
1 1 1 1 1 1 1 1 1 
1 1 1 1 1 1 1 1 1 
1 1 1 1 1 1 1 1 1 
1 1 1 1 1 1 1 1 1 
1 1 1 1 1 1 1 1 1 
1 1 1 1 1 1 1 1 1 
1 1 1 1 1 1 1 1 1 
1 1 1 1 1 1 1 1 1 
1 1 1 1 1 1 1 1 1 
1 1 1 1 1 1 1 1 1 
1 1 1 1 1 1 1 1 1 
1 1 1 1 1 1 1 1 1 
1 1 1 1 1 1 1 1 1 
1 1 1 1 1 1 1 1 1 
1 1 1 1 1 1 1 1 1 
1 1 1 1 1 1 1 1 1 
1 1 1 1 1 1 1 1 1 
1 1 1 1 1 1 1 1 1 
1 1 1 1 1 1 1 1 1 
1 1 1 1 1 1 1 1 1 
1 1 1 1 1 1 1 1 1 
1 1 1 1 1 1 1 1 1 
1 1 1 1 1 1 1 1 1 
1 1 1 1 1 1 1 1 1 
1 1 1 1 1 1 1 1 1 
1 1 1 1 1 1 1 1 1 
1 1 1 1 1 1 1 1 1 
1 1 1 1 1 1 1 1 1 
1 1 1 1 1 1 1 1 1 
1 1 1 1 1 1 1 1 1 
1 1 1 1 1 1 1 1 1 
1 1 1 1 1 1 1 1 1 
1 1 1 1 1 1 1 1 1 
1 1 1 1 1 1 1 1 1 
1 1 1 1 1 1 1 1 1 
1 1 1 1 1 1 1 1 1 
1 1 1 1 1 1 1 1 1 
1 1 1 1 1 1 1 1 1 
1 1 1 1 1 1 1 1 1 
1 1 1 1 1 1 1 1 1 
1 1 1 1 1 1 1 1 1 
1 1 1 1 1 1 1 1 1 
1 1 1 1 1 1 1 1 1 
1 1 1 1 1 1 1 1 1 
1 1 1 1 1 1 1 1 1 
1 1 1 1 1 1 1 1 1 
1 1 1 1 1 1 1 1 1 
1 1 1 1 1 1 1 1 1 
1 1 1 1 1 1 1 1 1 
1 1 1 1 1 1 1 1 1 
1 1 1 1 1 1 1 1 1 
1 1 1 1 1 1 1 1 1 
1 1 1 1 1 1 1 1 1 
1 1 1 1 1 1 1 1 1 
1 1 1 1 1 1 1 1 1 
1 1 1 1 1 1 1 1 1 
1 1 1 1 1 1 1 1 1 
1 1 1 1 1 1 1 1 1 
1 1 1 1 1 1 1 1 1 
1 1 1 1 1 1 1 1 1 
1 1 1 1 1 1 1 1 1 
1 1 1 1 1 1 1 1 1 
1 1 1 1 1 1 1 1 1 
1 1 1 1 1 1 1 1 1 
1 1 1 1 1 1 1 1 1 
1 1 1 1 1 1 1 1 1 
1 1 1 1 1 1 1 1 1 
1 1 1 1 1 1 1 1 1 
1 1 1 1 1 1 1 1 1 
1 1 1 1 1 1 1 1 1 
1 1 1 1 1 1 1 1 1 
1 1 1 1 1 1 1 1 1 
1 1 1 1 1 1 1 1 1 
1 1 1 1 1 1 1 1 1 
1 1 1 1 1 1 1 1 1 
1 1 1 1 1 1 1 1 1 
1 1 1 1 1 1 1 1 1 
1 1 1 1 1 1 1 1 1 
1 1 1 1 1 1 1 1 1 
1 1 1 1 1 1 1 1 1 
1 1 1 1 1 1 1 1 1 
1 1 1 1 1 1 1 1 1 
1 1 1 1 1 1 1 1 1 
1 1 1 1 1 1 1 1 1 
1 1 1 1 1 1 1 1 1 
1 1 1 1 1 1 1 1 1 
1 1 1 1 1 1 1 1 1 
1 1 1 1 1 1 1 1 1 
1 1 1 1 1 1 1 1 1 
1 1 1 1 1 1 1 1 1 
1 1 1 1 1 1 1 1 1 
1 1 1 1 1 1 1 1 1 
1 1 1 1 1 1 1 1 1 
1 1 1 1 1 1 1 1 1 
1 1 1 1 1 1 1 1 1 
1 1 1 1 1 1 1 1 1 
1 1 1 1 1 1 1 1 1 
1 1 1 1 1 1 1 1 1 
1 1 1 1 1 1 1 1 1 
1 1 1 1 1 1 1 1 1 
1 1 1 1 1 1 1 1 1 
1 1 1 1 1 1 1 1 1 
1 1 1 1 1 1 1 1 1 
1 1 1 1 1 1 1 1 1 
1 1 1 1 1 1 1 1 1 
1 1 1 1 1 1 1 1 1 
1 1 1 1 1 1 1 1 1 
1 1 1 1 1 1 1 1 1 
1 1 1 1 1 1 1 1 1 
1 1 1 1 1 1 1 1 1 
1 1 1 1 1 1 1 1 1 
1 1 1 1 1 1 1 1 1 
1 1 1 1 1 1 1 1 1 
1 
NORMALS normals float
-0.0293991 0 -0.999568 -0.0211006 -0.69632 -0.717421 -0.999568 0 -0.0293991 
0 0 -1 0 -0.696475 -0.717581 0 0 -1 
0 -0.696475 -0.717581 0.0293864 -0.0293864 -0.999136 0.0207928 -0.706954 -0.706954 
0.706954 -0.0207928 -0.706954 -0.0211006 0.69632 -0.717421 0 0.696475 -0.717581 
-0.57152 0.57152 -0.588838 -0.57152 0.57152 -0.588838 0 0 -1 
0.57152 -0.57152 -0.588838 -0.0293864 0.0293864 -0.999136 -0.706954 0.0207928 -0.706954 
0.57152 -0.57152 -0.588838 0 0 -1 0.0293864 -0.0293864 -0.999136 
0.0207928 -0.706954 -0.706954 0.706954 -0.0207928 -0.706954 -0.0207928 0.706954 -0.706954 
-0.57152 0.57152 -0.588838 -0.57152 0.57152 -0.588838 0 0 -1 
0.57152 -0.57152 -0.588838 -0.0293864 0.0293864 -0.999136 -0.706954 0.0207928 -0.706954 
0.583009 -0.565862 -0.583009 0.0293991 0 -0.999568 0.707107 0 -0.707107 
-0.0207928 0.706954 -0.706954 0.0211006 0.69632 -0.717421 0 -0.0293991 -0.999568 
0 -0.707107 -0.707107 -0.69632 -0.0211006 -0.717421 0.999083 -0.0302752 -0.0302752 
0 0 -1 -0.696475 0 -0.717581 0.57152 -0.57152 -0.588838 
-0.0293864 0.0293864 -0.999136 -0.706954 0.0207928 -0.706954 0.583009 -0.565862 -0.583009 
0.0293991 0 -0.999568 0.583009 -0.565862 -0.583009 -0.0207928 0.706954 -0.706954 
-0.559684 0.577174 -0.594664 0.565862 -0.583009 -0.583009 -0.577174 0.559684 -0.594664 
0 -0.0293991 -0.999568 0.565862 -0.583009 -0.583009 -0.0293864 0.0293864 -0.999136 
-0.706954 0.0207928 -0.706954 0.583009 -0.565862 -0.583009 0.0293991 0 -0.999568 
0.583009 -0.565862 -0.583009 -0.0207928 0.706954 -0.706954 -0.559684 0.577174 -0.594664 
0.565862 -0.583009 -0.583009 -0.577174 0.559684 -0.594664 0 -0.0293991 -0.999568 
0.565862 -0.583009 -0.583009 -0.0293864 0.0293864 -0.999136 -0.706954 0.0207928 -0.706954 
0.583009 -0.565862 -0.583009 0.0293991 0 -0.999568 0.707107 0 -0.707107 
-0.0207928 0.706954 -0.706954 0.0211006 0.69632 -0.717421 0 -0.0293991 -0.999568 
0 -0.707107 -0.707107 -0.69632 -0.0211006 -0.717421 0.999083 -0.0302752 -0.0302752 
0 0 -1 -0.696475 0 -0.717581 0.696475 0 -0.717581 
0 0 -1 -0.696475 0 -0.717581 0.696475 0 -0.717581 
0 0 -1 -0.696475 0 -0.717581 0.696475 0 -0.717581 
-0.0293991 0 -0.999568 -0.0211006 -0.69632 -0.717421 -0.999568 0 -0.0293991 
0.0293864 -0.0293864 -0.999136 0.0207928 -0.706954 -0.706954 0.706954 -0.0207928 -0.706954 
0 0 -1 -0.696475 0 -0.717581 0.696475 0 -0.717581 
-0.583009 0.565862 -0.583009 -0.57152 0.57152 -0.588838 0 0 -1 
0.696475 0 -0.717581 0 0 -1 -0.696475 0 -0.717581 
0.696475 0 -0.717581 0 0 -1 -0.696475 0 -0.717581 
0.696475 0 -0.717581 0 0.0293991 -0.999568 -0.69632 0.0211006 -0.717421 
0.69632 0.0211006 -0.717421 0 0 -1 -0.696475 0 -0.717581 
0.696475 0 -0.717581 0 0.707107 -0.707107 0 0 -1 
-0.696475 0 -0.717581 0.696475 0 -0.717581 0 0 -1 
-0.696475 0 -0.717581 0.696475 0 -0.717581 0 0 -1 
-0.696475 0 -0.717581 0.696475 0 -0.717581 0 0 -1 
-0.696475 0 -0.717581 0.696475 0 -0.717581 0 0 -1 
-0.696475 0 -0.717581 0.696475 0 -0.717581 0 0 -1 
-0.696475 0 -0.717581 0.696475 0 -0.717581 0 0 -1 
-0.696475 0 -0.717581 0.696475 0 -0.717581 0 0 -1 
-0.696475 0 -0.717581 0.696475 0 -0.717581 0 0.0293991 -0.999568 
-0.69632 0.0211006 -0.717421 0.69632 0.0211006 -0.717421 0 0.999568 -0.0293991 
-0.0293864 -0.0293864 -0.999136 -0.0207928 -0.706954 -0.706954 -0.706954 -0.0207928 -0.706954 
0.0293991 0 -0.999568 0.0211006 -0.69632 -0.717421 0.707107 0 -0.707107 
0 0 -1 -0.696475 0 -0.717581 0.57152 0.57152 -0.588838 
0.583009 0.565862 -0.583009 0 0 -1 -0.696475 0 -0.717581 
0.696475 0 -0.717581 0 0 -1 -0.696475 0 -0.717581 
0.696475 0 -0.717581 0 0.0293991 -0.999568 -0.69632 0.0211006 -0.717421 
0.69632 0.0211006 -0.717421 0 0.707107 -0.707107 -0.0293864 -0.0293864 -0.999136 