# vtk DataFile Version 3.0
vtk output
ASCII
DATASET POLYDATA
POINTS 3154 float
106 96 68.0128 106 95.0128 69 105.013 96 69 
106.987 96 69 106 97 68.0128 105.013 97 69 
107 96.0128 69 107 97 68.0128 108 97 68.0128 
108 96.0128 69 108.987 97 69 106 97.9872 69 
107 97.9872 69 108 97.9872 69 101 96 69.0128 
101 95.0128 70 100.013 96 70 102 96 69.0128 
102 95.0128 70 103 96 69.0128 103 95.0128 70 
104 96 69.0128 104 95.0128 70 105 96 69.0128 
105 95.0128 70 106 95.0128 70 107 96 69.0128 
107 95.0128 70 108 96 69.0128 108 95.0128 70 
108.987 96 70 100 97 69.0128 100 96.0128 70 
99.0128 97 70 101 97 69.0128 102 97 69.0128 
103 97 69.0128 104 97 69.0128 105 97 69.0128 
108.987 97 70 99 98 69.0128 99 97.0128 70 
98.0128 98 70 100 98 69.0128 101 98 69.0128 
102 98 69.0128 103 98 69.0128 104 98 69.0128 
105 98 69.0128 106 98 69.0128 107 98 69.0128 
108 98 69.0128 109 97.0128 70 109 98 69.0128 
110 98 69.0128 110 97.0128 70 110.987 98 70 
98 99 69.0128 98 98.0128 70 97.0128 99 70 
99 99 69.0128 100 99 69.0128 101 99 69.0128 
102 99 69.0128 103 99 69.0128 104 99 69.0128 
105 99 69.0128 106 99 69.0128 107 99 69.0128 
108 99 69.0128 109 99 69.0128 110 99 69.0128 
110.987 99 70 97 100 69.0128 97 99.0128 70 
96.0128 100 70 98 100 69.0128 99 100 69.0128 
100 100 69.0128 101 100 69.0128 102 100 69.0128 
103 100 69.0128 104 100 69.0128 105 100 69.0128 
106 100 69.0128 107 100 69.0128 108 100 69.0128 
109 100 69.0128 110 100 69.0128 111 99.0128 70 
111 100 69.0128 112 100 69.0128 112 99.0128 70 
112.987 100 70 97 101 69.0128 96.0128 101 70 
98 101 69.0128 99 101 69.0128 100 101 69.0128 
101 101 69.0128 102 101 69.0128 103 101 69.0128 
104 101 69.0128 105 101 69.0128 106 101 69.0128 
107 101 69.0128 108 101 69.0128 109 101 69.0128 
110 101 69.0128 111 101 69.0128 112 101 69.0128 
112.987 101 70 97 102 69.0128 96.0128 102 70 
98 102 69.0128 99 102 69.0128 100 102 69.0128 
101 102 69.0128 102 102 69.0128 103 102 69.0128 
104 102 69.0128 105 102 69.0128 106 102 69.0128 
107 102 69.0128 108 102 69.0128 109 102 69.0128 
110 102 69.0128 111 102 69.0128 112 102 69.0128 
112.987 102 70 96 103 69.0128 96 102.013 70 
95.0128 103 70 97 103 69.0128 98 103 69.0128 
99 103 69.0128 100 103 69.0128 101 103 69.0128 
102 103 69.0128 103 103 69.0128 104 103 69.0128 
105 103 69.0128 106 103 69.0128 107 103 69.0128 
108 103 69.0128 109 103 69.0128 110 103 69.0128 
111 103 69.0128 112 103 69.0128 112.987 103 70 
95 104 69.0128 95 103.013 70 94.0128 104 70 
96 104 69.0128 97 104 69.0128 98 104 69.0128 
99 104 69.0128 100 104 69.0128 101 104 69.0128 
102 104 69.0128 103 104 69.0128 104 104 69.0128 
105 104 69.0128 106 104 69.0128 107 104 69.0128 
108 104 69.0128 109 104 69.0128 110 104 69.0128 
111 104 69.0128 112 104 69.0128 112.987 104 70 
95 105 69.0128 94.0128 105 70 96 105 69.0128 
97 105 69.0128 98 105 69.0128 99 105 69.0128 
100 105 69.0128 101 105 69.0128 102 105 69.0128 
103 105 69.0128 104 105 69.0128 105 105 69.0128 
106 105 69.0128 107 105 69.0128 108 105 69.0128 
109 105 69.0128 110 105 69.0128 111 105 69.0128 
112 105 69.0128 112.987 105 70 95 106 69.0128 
94.0128 106 70 96 106 69.0128 97 106 69.0128 
98 106 69.0128 99 106 69.0128 100 106 69.0128 
101 106 69.0128 102 106 69.0128 103 106 69.0128 
104 106 69.0128 105 106 69.0128 106 106 69.0128 
107 106 69.0128 108 106 69.0128 109 106 69.0128 
110 106 69.0128 111 106 69.0128 112 106 69.0128 
112.987 106 70 95 107 69.0128 94.0128 107 70 
96 107 69.0128 97 107 69.0128 98 107 69.0128 
99 107 69.0128 100 107 69.0128 101 107 69.0128 
102 107 69.0128 103 107 69.0128 104 107 69.0128 
105 107 69.0128 106 107 69.0128 107 107 69.0128 
108 107 69.0128 109 107 69.0128 110 107 69.0128 
111 107 69.0128 112 107 69.0128 112.987 107 70 
95 108 69.0128 94.0128 108 70 96 108 69.0128 
97 108 69.0128 98 108 69.0128 99 108 69.0128 
100 108 69.0128 101 108 69.0128 102 108 69.0128 
103 108 69.0128 104 108 69.0128 105 108 69.0128 
106 108 69.0128 107 108 69.0128 108 108 69.0128 
109 108 69.0128 110 108 69.0128 111 108 69.0128 
112 108 69.0128 112.987 108 70 94 109 69.0128 
94 108.013 70 93.0128 109 70 95 109 69.0128 
96 109 69.0128 97 109 69.0128 98 109 69.0128 
99 109 69.0128 100 109 69.0128 101 109 69.0128 
102 109 69.0128 103 109 69.0128 104 109 69.0128 
105 109 69.0128 106 109 69.0128 107 109 69.0128 
108 109 69.0128 109 109 69.0128 110 109 69.0128 
111 109 69.0128 112 109 69.0128 112.987 109 70 
93 110 69.0128 93 109.013 70 92.0128 110 70 
94 110 69.0128 95 110 69.0128 96 110 69.0128 
97 110 69.0128 98 110 69.0128 99 110 69.0128 
100 110 69.0128 101 110 69.0128 102 110 69.0128 
103 110 69.0128 104 110 69.0128 105 110 69.0128 
106 110 69.0128 107 110 69.0128 108 110 69.0128 
109 110 69.0128 110 110 69.0128 111 110 69.0128 
112 110 69.0128 112.987 110 70 93 111 69.0128 
92.0128 111 70 94 111 69.0128 95 111 69.0128 
96 111 69.0128 97 111 69.0128 98 111 69.0128 
99 111 69.0128 100 111 69.0128 101 111 69.0128 
102 111 69.0128 103 111 69.0128 104 111 69.0128 
105 111 69.0128 106 111 69.0128 107 111 69.0128 
108 111 69.0128 109 111 69.0128 110 111 69.0128 
111 111 69.0128 111.987 111 70 112 110.987 70 
93 112 69.0128 92.0128 112 70 94 112 69.0128 
95 112 69.0128 96 112 69.0128 97 112 69.0128 
98 112 69.0128 99 112 69.0128 100 112 69.0128 
101 112 69.0128 102 112 69.0128 103 112 69.0128 
104 112 69.0128 105 112 69.0128 106 112 69.0128 
107 112 69.0128 108 112 69.0128 109 112 69.0128 
110 112 69.0128 110.987 112 70 111 111.987 70 
93 113 69.0128 92.0128 113 70 94 113 69.0128 
95 113 69.0128 96 113 69.0128 97 113 69.0128 
98 113 69.0128 99 113 69.0128 100 113 69.0128 
101 113 69.0128 102 113 69.0128 103 113 69.0128 
104 113 69.0128 105 113 69.0128 106 113 69.0128 
107 113 69.0128 108 113 69.0128 109 113 69.0128 
110 113 69.0128 110.987 113 70 93 114 69.0128 
92.0128 114 70 94 114 69.0128 95 114 69.0128 
96 114 69.0128 97 114 69.0128 98 114 69.0128 
99 114 69.0128 100 114 69.0128 101 114 69.0128 
102 114 69.0128 103 114 69.0128 104 114 69.0128 
105 114 69.0128 106 114 69.0128 107 114 69.0128 
108 114 69.0128 109 114 69.0128 110 114 69.0128 
110.987 114 70 93 115 69.0128 92.0128 115 70 
94 115 69.0128 95 115 69.0128 96 115 69.0128 
97 115 69.0128 98 115 69.0128 99 115 69.0128 
100 115 69.0128 101 115 69.0128 102 115 69.0128 
103 115 69.0128 104 115 69.0128 105 115 69.0128 
106 115 69.0128 107 115 69.0128 108 115 69.0128 
109 115 69.0128 110 115 69.0128 110.987 115 70 
93 115.987 70 94 115.987 70 94.0128 116 70 
95 116 69.0128 96 116 69.0128 97 116 69.0128 
98 116 69.0128 99 116 69.0128 100 116 69.0128 
101 116 69.0128 102 116 69.0128 103 116 69.0128 
104 116 69.0128 105 116 69.0128 106 116 69.0128 
107 116 69.0128 108 116 69.0128 109 116 69.0128 
110 116 69.0128 110.987 116 70 95 117 69.0128 
94.0128 117 70 96 117 69.0128 97 117 69.0128 
98 117 69.0128 99 117 69.0128 100 117 69.0128 
101 117 69.0128 102 117 69.0128 103 117 69.0128 
104 117 69.0128 105 117 69.0128 106 117 69.0128 
107 117 69.0128 108 117 69.0128 109 117 69.0128 
109.987 117 70 110 116.987 70 95 118 69.0128 
94.0128 118 70 96 118 69.0128 97 118 69.0128 
98 118 69.0128 99 118 69.0128 100 118 69.0128 
101 118 69.0128 102 118 69.0128 103 118 69.0128 
104 118 69.0128 105 118 69.0128 106 118 69.0128 
107 118 69.0128 108 118 69.0128 108.987 118 70 
109 117.987 70 95 119 69.0128 94.0128 119 70 
96 119 69.0128 97 119 69.0128 98 119 69.0128 
99 119 69.0128 100 119 69.0128 101 119 69.0128 
102 119 69.0128 103 119 69.0128 104 119 69.0128 
105 119 69.0128 106 119 69.0128 107 119 69.0128 
107.987 119 70 108 118.987 70 95 119.987 70 
96 119.987 70 96.0128 120 70 97 120 69.0128 
98 120 69.0128 99 120 69.0128 100 120 69.0128 
101 120 69.0128 102 120 69.0128 103 120 69.0128 
104 120 69.0128 105 120 69.0128 106 120 69.0128 
106.987 120 70 107 119.987 70 97 121 69.0128 
96.0128 121 70 98 121 69.0128 99 121 69.0128 
100 121 69.0128 101 121 69.0128 102 121 69.0128 
103 121 69.0128 104 121 69.0128 105 121 69.0128 
105.987 121 70 106 120.987 70 97 121.987 70 
98 121.987 70 99 121.987 70 100 121.987 70 
101 121.987 70 102 121.987 70 103 121.987 70 
104 121.987 70 105 121.987 70 104 95 70.0128 
104 94.0128 71 103.013 95 71 105 95 70.0128 
105 94.0128 71 106 95 70.0128 106 94.0128 71 
106.987 95 71 101 95.0128 71 100.013 96 71 
102 95.0128 71 103 95.0128 71 107 95.0128 71 
108 95.0128 71 108.987 96 71 100 96.0128 71 
99.0128 97 71 109 96.0128 71 109 97 70.0128 
109.987 97 71 99 97.0128 71 98.0128 98 71 
110 97.0128 71 110.987 98 71 98 98.0128 71 
97.0128 99 71 111 98.0128 71 111 99 70.0128 
111.987 99 71 97 99.0128 71 96.0128 100 71 
112 99.0128 71 112.987 100 71 96 101 70.0128 
96 100.013 71 95.0128 101 71 112.987 101 71 
96 102 70.0128 95.0128 102 71 112.987 102 71 
95 103 70.0128 95 102.013 71 94.0128 103 71 
112.987 103 71 94.0128 104 71 112.987 104 71 
94.0128 105 71 112.987 105 71 94.0128 106 71 
112.987 106 71 94 107 70.0128 94 106.013 71 
93.0128 107 71 112.987 107 71 94 108 70.0128 
93.0128 108 71 112.987 108 71 93 109 70.0128 
93 108.013 71 92.0128 109 71 112.987 109 71 
92.0128 110 71 112.987 110 71 92.0128 111 71 
111.987 111 71 112 110.987 71 92.0128 112 71 
110.987 112 71 111 111.987 71 92.0128 113 71 
110.987 113 71 92.0128 114 71 110.987 114 71 
92.0128 115 71 110.987 115 71 93 115.987 71 
94 115.987 71 94.0128 116 71 110.987 116 71 
94.0128 117 71 109.987 117 71 110 116.987 71 
94.0128 118 71 108.987 118 71 109 117.987 71 
94.0128 119 71 107.987 119 71 108 118.987 71 
95 119.987 71 96 119.987 71 96.0128 120 71 
106.987 120 71 107 119.987 71 96.0128 121 71 
105.987 121 71 106 120.987 71 97 121.987 71 
98 121.987 71 99 121.987 71 100 121.987 71 
101 121.987 71 102 121.987 71 103 121.987 71 
104 121.987 71 105 121.987 71 105 94 71.0128 
105 93.0128 72 104.013 94 72 106 94 71.0128 
106 93.0128 72 106.987 94 72 104 94.0128 72 
103.013 95 72 106.987 95 72 101 95.0128 72 
100.013 96 72 102 95.0128 72 103 95.0128 72 
107 95.0128 72 108 95.0128 72 109 96 71.0128 
109 95.0128 72 110 96 71.0128 110 95.0128 72 
110.987 96 72 100 96.0128 72 99.0128 97 72 
[...]
POINT_DATA 3154
SCALARS scalars float
LOOKUP_TABLE default
1 1 1 1 1 1 1 1 1 
1 1 1 1 1 1 1 1 1 
1 1 1 1 1 1 1 1 1 
1 1 1 1 1 1 1 1 1 
1 1 1 1 1 1 1 1 1 
1 1 1 1 1 1 1 1 1 
1 1 1 1 1 1 1 1 1 
1 1 1 1 1 1 1 1 1 
1 1 1 1 1 1 1 1 1 
1 1 1 1 1 1 1 1 1 
1 1 1 1 1 1 1 1 1 
1 1 1 1 1 1 1 1 1 
1 1 1 1 1 1 1 1 1 
1 1 1 1 1 1 1 1 1 
1 1 1 1 1 1 1 1 1 
1 1 1 1 1 1 1 1 1 
1 1 1 1 1 1 1 1 1 
1 1 1 1 1 1 1 1 1 
1 1 1 1 1 1 1 1 1 
1 1 1 1 1 1 1 1 1 
1 1 1 1 1 1 1 1 1 
1 1 1 1 1 1 1 1 1 
1 1 1 1 1 1 1 1 1 
1 1 1 1 1 1 1 1 1 
1 1 1 1 1 1 1 1 1 
1 1 1 1 1 1 1 1 1 
1 1 1 1 1 1 1 1 1 
1 1 1 1 1 1 1 1 1 
1 1 1 1 1 1 1 1 1 
1 1 1 1 1 1 1 1 1 
1 1 1 1 1 1 1 1 1 
1 1 1 1 1 1 1 1 1 
1 1 1 1 1 1 1 1 1 
1 1 1 1 1 1 1 1 1 
1 1 1 1 1 1 1 1 1 
1 1 1 1 1 1 1 1 1 
1 1 1 1 1 1 1 1 1 
1 1 1 1 1 1 1 1 1 
1 1 1 1 1 1 1 1 1 
1 1 1 1 1 1 1 1 1 
1 1 1 1 1 1 1 1 1 
1 1 1 1 1 1 1 1 1 
1 1 1 1 1 1 1 1 1 
1 1 1 1 1 1 1 1 1 
1 1 1 1 1 1 1 1 1 
1 1 1 1 1 1 1 1 1 
1 1 1 1 1 1 1 1 1 
1 1 1 1 1 1 1 1 1 
1 1 1 1 1 1 1 1 1 
1 1 1 1 1 1 1 1 1 
1 1 1 1 1 1 1 1 1 
1 1 1 1 1 1 1 1 1 
1 1 1 1 1 1 1 1 1 
1 1 1 1 1 1 1 1 1 
1 1 1 1 1 1 1 1 1 
1 1 1 1 1 1 1 1 1 
1 1 1 1 1 1 1 1 1 
1 1 1 1 1 1 1 1 1 
1 1 1 1 1 1 1 1 1 
1 1 1 1 1 1 1 1 1 
1 1 1 1 1 1 1 1 1 
1 1 1 1 1 1 1 1 1 
1 1 1 1 1 1 1 1 1 
1 1 1 1 1 1 1 1 1 
1 1 1 1 1 1 1 1 1 
1 1 1 1 1 1 1 1 1 
1 1 1 1 1 1 1 1 1 
1 1 1 1 1 1 1 1 1 
1 1 1 1 1 1 1 1 1 
1 1 1 1 1 1 1 1 1 
1 1 1 1 1 1 1 1 1 
1 1 1 1 1 1 1 1 1 
1 1 1 1 1 1 1 1 1 
1 1 1 1 1 1 1 1 1 
1 1 1 1 1 1 1 1 1 
1 1 1 1 1 1 1 1 1 
1 1 1 1 1 1 1 1 1 
1 1 1 1 1 1 1 1 1 
1 1 1 1 1 1 1 1 1 
1 1 1 1 1 1 1 1 1 
1 1 1 1 1 1 1 1 1 
1 1 1 1 1 1 1 1 1 
1 1 1 1 1 1 1 1 1 
1 1 1 1 1 1 1 1 1 
1 1 1 1 1 1 1 1 1 
1 1 1 1 1 1 1 1 1 
1 1 1 1 1 1 1 1 1 
1 1 1 1 1 1 1 1 1 
1 1 1 1 1 1 1 1 1 
1 1 1 1 1 1 1 1 1 
1 1 1 1 1 1 1 1 1 
1 1 1 1 1 1 1 1 1 
1 1 1 1 1 1 1 1 1 
1 1 1 1 1 1 1 1 1 
1 1 1 1 1 1 1 1 1 
1 1 1 1 1 1 1 1 1 
1 1 1 1 1 1 1 1 1 
1 1 1 1 1 1 1 1 1 
1 1 1 1 1 1 1 1 1 
1 1 1 1 1 1 1 1 1 
1 1 1 1 1 1 1 1 1 
1 1 1 1 1 1 1 1 1 
1 1 1 1 1 1 1 1 1 
1 1 1 1 1 1 1 1 1 
1 1 1 1 1 1 1 1 1 
1 1 1 1 1 1 1 1 1 
1 1 1 1 1 1 1 1 1 
1 1 1 1 1 1 1 1 1 
1 1 1 1 1 1 1 1 1 
1 1 1 1 1 1 1 1 1 
1 1 1 1 1 1 1 1 1 
1 1 1 1 1 1 1 1 1 
1 1 1 1 1 1 1 1 1 
1 1 1 1 1 1 1 1 1 
1 1 1 1 1 1 1 1 1 
1 1 1 1 1 1 1 1 1 
1 1 1 1 1 1 1 1 1 
1 1 1 1 1 1 1 1 1 
1 1 1 1 1 1 1 1 1 
1 1 1 1 1 1 1 1 1 
1 1 1 1 1 1 1 1 1 
1 1 1 1 1 1 1 1 1 
1 1 1 1 1 1 1 1 1 
1 1 1 1 1 1 1 1 1 
1 1 1 1 1 1 1 1 1 
1 1 1 1 1 1 1 1 1 
1 1 1 1 1 1 1 1 1 
1 1 1 1 1 1 1 1 1 
1 1 1 1 1 1 1 1 1 
1 1 1 1 1 1 1 1 1 
1 1 1 1 1 1 1 1 1 
1 1 1 1 1 1 1 1 1 
1 1 1 1 1 1 1 1 1 
1 1 1 1 1 1 1 1 1 
1 1 1 1 1 1 1 1 1 
1 1 1 1 1 1 1 1 1 
1 1 1 1 1 1 1 1 1 
1 1 1 1 1 1 1 1 1 
1 1 1 1 1 1 1 1 1 
1 1 1 1 1 1 1 1 1 
1 1 1 1 1 1 1 1 1 
1 1 1 1 1 1 1 1 1 
1 1 1 1 1 1 1 1 1 
1 1 1 1 1 1 1 1 1 
1 1 1 1 1 1 1 1 1 
1 1 1 1 1 1 1 1 1 
1 1 1 1 1 1 1 1 1 
1 1 1 1 1 1 1 1 1 
1 1 1 1 1 1 1 1 1 
1 1 1 1 1 1 1 1 1 
1 1 1 1 1 1 1 1 1 
1 1 1 1 1 1 1 1 1 
1 1 1 1 1 1 1 1 1 
1 1 1 1 1 1 1 1 1 
1 1 1 1 1 1 1 1 1 
1 1 1 1 1 1 1 1 1 
1 1 1 1 1 1 1 1 1 
1 1 1 1 1 1 1 1 1 
1 1 1 1 1 1 1 1 1 
1 1 1 1 1 1 1 1 1 
1 1 1 1 1 1 1 1 1 
1 1 1 1 1 1 1 1 1 
1 1 1 1 1 1 1 1 1 
1 1 1 1 1 1 1 1 1 
1 1 1 1 1 1 1 1 1 
1 1 1 1 1 1 1 1 1 
1 1 1 1 1 1 1 1 1 
1 1 1 1 1 1 1 1 1 
1 1 1 1 1 1 1 1 1 
1 1 1 1 1 1 1 1 1 
1 1 1 1 1 1 1 1 1 
1 1 1 1 1 1 1 1 1 
1 1 1 1 1 1 1 1 1 
1 1 1 1 1 1 1 1 1 
1 1 1 1 1 1 1 1 1 
1 1 1 1 1 1 1 1 1 
1 1 1 1 1 1 1 1 1 
1 1 1 1 1 1 1 1 1 
1 1 1 1 1 1 1 1 1 
1 1 1 1 1 1 1 1 1 
1 1 1 1 1 1 1 1 1 
1 1 1 1 1 1 1 1 1 
1 1 1 1 1 1 1 1 1 
1 1 1 1 1 1 1 1 1 
1 1 1 1 1 1 1 1 1 
1 1 1 1 1 1 1 1 1 
1 1 1 1 1 1 1 1 1 
1 1 1 1 1 1 1 1 1 
1 1 1 1 1 1 1 1 1 
1 1 1 1 1 1 1 1 1 
1 1 1 1 1 1 1 1 1 
1 1 1 1 1 1 1 1 1 
1 1 1 1 1 1 1 1 1 
1 1 1 1 1 1 1 1 1 
1 1 1 1 1 1 1 1 1 
1 1 1 1 1 1 1 1 1 
1 1 1 1 1 1 1 1 1 
1 1 1 1 1 1 1 1 1 
1 1 1 1 1 1 1 1 1 
1 1 1 1 1 1 1 1 1 
1 1 1 1 1 1 1 1 1 
1 1 1 1 1 1 1 1 1 
1 1 1 1 1 1 1 1 1 
1 1 1 1 1 1 1 1 1 
1 1 1 1 1 1 1 1 1 
1 1 1 1 1 1 1 1 1 
1 1 1 1 1 1 1 1 1 
1 1 1 1 1 1 1 1 1 
1 1 1 1 1 1 1 1 1 
1 1 1 1 1 1 1 1 1 
1 1 1 1 1 1 1 1 1 
1 1 1 1 1 1 1 1 1 
1 1 1 1 1 1 1 1 1 
1 1 1 1 1 1 1 1 1 
1 1 1 1 1 1 1 1 1 
1 1 1 1 1 1 1 1 1 
1 1 1 1 1 1 1 1 1 
1 1 1 1 1 1 1 1 1 
1 1 1 1 1 1 1 1 1 
1 1 1 1 1 1 1 1 1 
1 1 1 1 1 1 1 1 1 
1 1 1 1 1 1 1 1 1 
1 1 1 1 1 1 1 1 1 
1 1 1 1 1 1 1 1 1 
1 1 1 1 1 1 1 1 1 
1 1 1 1 1 1 1 1 1 
1 1 1 1 1 1 1 1 1 
1 1 1 1 1 1 1 1 1 
1 1 1 1 1 1 1 1 1 
1 1 1 1 1 1 1 1 1 
1 1 1 1 1 1 1 1 1 
1 1 1 1 1 1 1 1 1 
1 1 1 1 1 1 1 1 1 
1 1 1 1 1 1 1 1 1 
1 1 1 1 1 1 1 1 1 
1 1 1 1 1 1 1 1 1 
1 1 1 1 1 1 1 1 1 
1 1 1 1 1 1 1 1 1 
1 1 1 1 1 1 1 1 1 
1 1 1 1 1 1 1 1 1 
1 1 1 1 1 1 1 1 1 
1 1 1 1 1 1 1 1 1 
1 1 1 1 1 1 1 1 1 
1 1 1 1 1 1 1 1 1 
1 1 1 1 1 1 1 1 1 
1 1 1 1 1 1 1 1 1 
1 1 1 1 1 1 1 1 1 
1 1 1 1 1 1 1 1 1 
1 1 1 1 1 1 1 1 1 
1 1 1 1 1 1 1 1 1 
1 1 1 1 1 1 1 1 1 
1 1 1 1 1 1 1 1 1 
1 1 1 1 1 1 1 1 1 
1 1 1 1 1 1 1 1 1 
1 1 1 1 1 1 1 1 1 
1 1 1 1 1 1 1 1 1 
1 1 1 1 1 1 1 1 1 
1 1 1 1 1 1 1 1 1 
1 1 1 1 1 1 1 1 1 
1 1 1 1 1 1 1 1 1 
1 1 1 1 1 1 1 1 1 
1 1 1 1 1 1 1 1 1 
1 1 1 1 1 1 1 1 1 
1 1 1 1 1 1 1 1 1 
1 1 1 1 1 1 1 1 1 
1 1 1 1 1 1 1 1 1 
1 1 1 1 1 1 1 1 1 
1 1 1 1 1 1 1 1 1 
1 1 1 1 1 1 1 1 1 
1 1 1 1 1 1 1 1 1 
1 1 1 1 1 1 1 1 1 
1 1 1 1 1 1 1 1 1 
1 1 1 1 1 1 1 1 1 
1 1 1 1 1 1 1 1 1 
1 1 1 1 1 1 1 1 1 
1 1 1 1 1 1 1 1 1 
1 1 1 1 1 1 1 1 1 
1 1 1 1 1 1 1 1 1 
1 1 1 1 1 1 1 1 1 
1 1 1 1 1 1 1 1 1 
1 1 1 1 1 1 1 1 1 
1 1 1 1 1 1 1 1 1 
1 1 1 1 1 1 1 1 1 
1 1 1 1 1 1 1 1 1 
1 1 1 1 1 1 1 1 1 
1 1 1 1 1 1 1 1 1 
1 1 1 1 1 1 1 1 1 
1 1 1 1 1 1 1 1 1 
1 1 1 1 1 1 1 1 1 
1 1 1 1 1 1 1 1 1 
1 1 1 1 1 1 1 1 1 
1 1 1 1 1 1 1 1 1 
1 1 1 1 1 1 1 1 1 
1 1 1 1 1 1 1 1 1 
1 1 1 1 1 1 1 1 1 
1 1 1 1 1 1 1 1 1 
1 1 1 1 1 1 1 1 1 
1 1 1 1 1 1 1 1 1 
1 1 1 1 1 1 1 1 1 
1 1 1 1 1 1 1 1 1 
1 1 1 1 1 1 1 1 1 
1 1 1 1 1 1 1 1 1 
1 1 1 1 1 1 1 1 1 
1 1 1 1 1 1 1 1 1 
1 1 1 1 1 1 1 1 1 
1 1 1 1 1 1 1 1 1 
1 1 1 1 1 1 1 1 1 
1 1 1 1 1 1 1 1 1 
1 1 1 1 1 1 1 1 1 
1 1 1 1 1 1 1 1 1 
1 1 1 1 1 1 1 1 1 
1 1 1 1 1 1 1 1 1 
1 1 1 1 1 1 1 1 1 
1 1 1 1 1 1 1 1 1 
1 1 1 1 1 1 1 1 1 
1 1 1 1 1 1 1 1 1 
1 1 1 1 1 1 1 1 1 
1 1 1 1 1 1 1 1 1 
1 1 1 1 1 1 1 1 1 
1 1 1 1 1 1 1 1 1 
1 1 1 1 1 1 1 1 1 
1 1 1 1 1 1 1 1 1 
1 1 1 1 1 1 1 1 1 
1 1 1 1 1 1 1 1 1 
1 1 1 1 1 1 1 1 1 
1 1 1 1 1 1 1 1 1 
1 1 1 1 1 1 1 1 1 
1 1 1 1 1 1 1 1 1 
1 1 1 1 1 1 1 1 1 
1 1 1 1 1 1 1 1 1 
1 1 1 1 1 1 1 1 1 
1 1 1 1 1 1 1 1 1 
1 1 1 1 1 1 1 1 1 
1 1 1 1 1 1 1 1 1 
1 1 1 1 1 1 1 1 1 
1 1 1 1 1 1 1 1 1 
1 1 1 1 1 1 1 1 1 
1 1 1 1 1 1 1 1 1 
1 1 1 1 1 1 1 1 1 
1 1 1 1 1 1 1 1 1 
1 1 1 1 1 1 1 1 1 
1 1 1 1 1 1 1 1 1 
1 1 1 1 1 1 1 1 1 
1 1 1 1 1 1 1 1 1 
1 1 1 1 1 1 1 1 1 
1 1 1 1 1 1 1 1 1 
1 1 1 1 1 1 1 1 1 
1 1 1 1 1 1 1 1 1 
1 1 1 1 1 1 1 1 1 
1 1 1 1 1 1 1 1 1 
1 1 1 1 
NORMALS normals float
0 -0.0128195 -0.999918 0 -0.999918 -0.0128195 -0.702501 -0.00912339 -0.711624 
0.572384 -0.579817 -0.579817 -0.0128184 0.0128184 -0.999836 -0.707078 0.0090651 -0.707078 
0.574851 -0.574851 -0.582317 0 0 -1 0.0128195 0 -0.999918 
0.00912339 -0.702501 -0.711624 0.999918 0 -0.0128195 -0.0090651 0.707078 -0.707078 
0 0.70253 -0.711654 0.00912339 0.702501 -0.711624 -0.0128184 -0.0128184 -0.999836 
-0.0128184 -0.999836 -0.0128184 -0.707078 -0.707078 -0.0090651 0 -0.0128195 -0.999918 
0 -0.999918 -0.0128195 0 -0.0128195 -0.999918 0 -0.999918 -0.0128195 
0 -0.0128195 -0.999918 0 -0.707107 -0.707107 -0.702501 -0.00912339 -0.711624 
0 -0.707107 -0.707107 0 -0.711654 -0.70253 0.572384 -0.579817 -0.579817 
0 -0.999918 -0.0128195 0.0090651 -0.707078 -0.707078 0.0128184 -0.999836 -0.0128184 
0.999836 -0.0128184 -0.0128184 -0.0128184 -0.0128184 -0.999836 -0.707078 -0.707078 -0.0090651 
-0.707078 -0.707078 -0.0090651 0 0 -1 0 0 -1 
0 0 -1 0 0 -1 -0.70253 0 -0.711654 
0.582317 -0.574851 -0.574851 -0.0128184 -0.0128184 -0.999836 -0.707078 -0.707078 -0.0090651 
-0.707078 -0.707078 -0.0090651 0 0 -1 0 0 -1 
0 0 -1 0 0 -1 0 0 -1 
0 0 -1 0 0.70253 -0.711654 0 0.70253 -0.711654 
0 0.70253 -0.711654 0.572384 -0.579817 -0.579817 0 -0.0128195 -0.999918 
0.0128184 -0.0128184 -0.999836 0.0128184 -0.999836 -0.0128184 0.999836 -0.0128184 -0.0128184 
-0.0128184 -0.0128184 -0.999836 -0.707078 -0.707078 -0.0090651 -0.707078 -0.707078 -0.0090651 
0 0 -1 0 0 -1 0 0 -1 
0 0 -1 0 0 -1 0 0 -1 
0 0 -1 0 0 -1 0 0 -1 
0 0 -1 0 0 -1 0.0128195 0 -0.999918 
0.579817 -0.572384 -0.579817 -0.0128184 -0.0128184 -0.999836 -0.707078 -0.707078 -0.0090651 
-0.999836 -0.0128184 -0.0128184 0 0 -1 0 0 -1 
0 0 -1 0 0 -1 0 0 -1 
0 0 -1 0 0 -1 0 0 -1 
0 0 -1 0 0 -1 0 0 -1 
0 0 -1 0 0 -1 0.572384 -0.579817 -0.579817 
0 -0.0128195 -0.999918 0.0128184 -0.0128184 -0.999836 0.0128184 -0.999836 -0.0128184 
0.999836 -0.0128184 -0.0128184 -0.0128195 0 -0.999918 -0.707107 0 -0.707107 
0 0 -1 0 0 -1 0 0 -1 
0 0 -1 0 0 -1 0 0 -1 
0 0 -1 0 0 -1 0 0 -1 
0 0 -1 0 0 -1 0 0 -1 
0 0 -1 0 0 -1 0.0128195 0 -0.999918 
0.999918 0 -0.0128195 -0.0128195 0 -0.999918 -0.579817 -0.572384 -0.579817 
0 0 -1 0 0 -1 0 0 -1 
0 0 -1 0 0 -1 0 0 -1 
0 0 -1 0 0 -1 0 0 -1 
0 0 -1 0 0 -1 0 0 -1 
0 0 -1 0 0 -1 0.0128195 0 -0.999918 
0.999918 0 -0.0128195 -0.0128184 -0.0128184 -0.999836 -0.57735 -0.57735 -0.57735 
-0.57735 -0.57735 -0.57735 0 0 -1 0 0 -1 
0 0 -1 0 0 -1 0 0 -1 
0 0 -1 0 0 -1 0 0 -1 
0 0 -1 0 0 -1 0 0 -1 
0 0 -1 0 0 -1 0 0 -1 
0 0 -1 0.0128195 0 -0.999918 0.999918 0 -0.0128195 
-0.0128184 -0.0128184 -0.999836 -0.57735 -0.57735 -0.57735 -0.999836 -0.0128184 -0.0128184 
0 0 -1 0 0 -1 0 0 -1 
0 0 -1 0 0 -1 0 0 -1 
0 0 -1 0 0 -1 0 0 -1 
0 0 -1 0 0 -1 0 0 -1 
0 0 -1 0 0 -1 0 0 -1 
0 0 -1 0.0128195 0 -0.999918 0.999918 0 -0.0128195 
-0.0128195 0 -0.999918 -0.999918 0 -0.0128195 0 0 -1 
0 0 -1 0 0 -1 0 0 -1 
0 0 -1 0 0 -1 0 0 -1 
0 0 -1 0 0 -1 0 0 -1 
0 0 -1 0 0 -1 0 0 -1 
0 0 -1 0 0 -1 0 0 -1 
0.0128195 0 -0.999918 0.999918 0 -0.0128195 -0.0128195 0 -0.999918 
-0.999918 0 -0.0128195 0 0 -1 0 0 -1 
0 0 -1 0 0 -1 0 0 -1 
0 0 -1 0 0 -1 0 0 -1 
0 0 -1 0 0 -1 0 0 -1 
0 0 -1 0 0 -1 0 0 -1 
0 0 -1 0 0 -1 0.0128195 0 -0.999918 
0.999918 0 -0.0128195 -0.0128195 0 -0.999918 -0.707107 0 -0.707107 
0 0 -1 0 0 -1 0 0 -1 
0 0 -1 0 0 -1 0 0 -1 
0 0 -1 0 0 -1 0 0 -1 
0 0 -1 0 0 -1 0 0 -1 
0 0 -1 0 0 -1 0 0 -1 
0 0 -1 0.0128195 0 -0.999918 0.999918 0 -0.0128195 
-0.0128195 0 -0.999918 -0.579817 -0.572384 -0.579817 0 0 -1 
0 0 -1 0 0 -1 0 0 -1 
0 0 -1 0 0 -1 0 0 -1 
0 0 -1 0 0 -1 0 0 -1 
0 0 -1 0 0 -1 0 0 -1 
0 0 -1 0 0 -1 0 0 -1 
0.0128195 0 -0.999918 0.999918 0 -0.0128195 -0.0128184 -0.0128184 -0.999836 
-0.57735 -0.57735 -0.57735 -0.57735 -0.57735 -0.57735 0 0 -1 
0 0 -1 0 0 -1 0 0 -1 
0 0 -1 0 0 -1 0 0 -1 
0 0 -1 0 0 -1 0 0 -1 
0 0 -1 0 0 -1 0 0 -1 
0 0 -1 0 0 -1 0 0 -1 
0 0 -1 0.0128195 0 -0.999918 0.999918 0 -0.0128195 
-0.0128184 -0.0128184 -0.999836 -0.57735 -0.57735 -0.57735 -0.999836 -0.0128184 -0.0128184 
0 0 -1 0 0 -1 0 0 -1 
0 0 -1 0 0 -1 0 0 -1 
0 0 -1 0 0 -1 0 0 -1 
0 0 -1 0 0 -1 0 0 -1 
0 0 -1 0 0 -1 0 0 -1 
0 0 -1 0 0 -1 0 0 -1 
0.0128184 0.0128184 -0.999836 0.999836 0.0128184 -0.0128184 -0.0128195 0 -0.999918 
-0.999918 0 -0.0128195 0 0 -1 0 0 -1 
0 0 -1 0 0 -1 0 0 -1 
0 0 -1 0 0 -1 0 0 -1 
0 0 -1 0 0 -1 0 0 -1 
0 0 -1 0 0 -1 0 0 -1 
0 0 -1 0 0 -1 0 0 -1 
0.0128184 0.0128184 -0.999836 0.707078 0.707078 -0.0090651 0.707078 0.707078 -0.0090651 
-0.0128195 0 -0.999918 -0.999918 0 -0.0128195 0 0 -1 
0 0 -1 0 0 -1 0 0 -1 
0 0 -1 0 0 -1 0 0 -1 
0 0 -1 0 0 -1 0 0 -1 
0 0 -1 0 0 -1 0 0 -1 
0 0 -1 0 0 -1 0 0 -1 
0.0128195 0 -0.999918 0.711624 0.702501 -0.00912339 0.707078 0.707078 -0.0090651 
-0.0128195 0 -0.999918 -0.999918 0 -0.0128195 0 0 -1 
0 0 -1 0 0 -1 0 0 -1 
0 0 -1 0 0 -1 0 0 -1 
0 0 -1 0 0 -1 0 0 -1 
0 0 -1 0 0 -1 0 0 -1 
0 0 -1 0 0 -1 0 0 -1 
0.0128195 0 -0.999918 0.999918 0 -0.0128195 -0.0128195 0 -0.999918 
-0.999918 0 -0.0128195 0 0 -1 0 0 -1 
0 0 -1 0 0 -1 0 0 -1 
0 0 -1 0 0 -1 0 0 -1 
0 0 -1 0 0 -1 0 0 -1 
0 0 -1 0 0 -1 0 0 -1 
0 0 -1 0 0 -1 0.0128195 0 -0.999918 
0.999918 0 -0.0128195 -0.0128184 0.0128184 -0.999836 -0.999836 0.0128184 -0.0128184 
0 0.0128195 -0.999918 0 0 -1 0 0 -1 
0 0 -1 0 0 -1 0 0 -1 
0 0 -1 0 0 -1 0 0 -1 
0 0 -1 0 0 -1 0 0 -1 
0 0 -1 0 0 -1 0 0 -1 
0 0 -1 0.0128195 0 -0.999918 0.999918 0 -0.0128195 
-0.0128184 0.999836 -0.0128184 -0.702501 0.711624 -0.00912339 -0.711624 0.702501 -0.00912339 
-0.0128195 0 -0.999918 0 0 -1 0 0 -1 
0 0 -1 0 0 -1 0 0 -1 
0 0 -1 0 0 -1 0 0 -1 
0 0 -1 0 0 -1 0 0 -1 
0 0 -1 0 0 -1 0 0 -1 
0.0128184 0.0128184 -0.999836 0.999836 0.0128184 -0.0128184 -0.0128195 0 -0.999918 
-0.999918 0 -0.0128195 0 0 -1 0 0 -1 
0 0 -1 0 0 -1 0 0 -1 
0 0 -1 0 0 -1 0 0 -1 
0 0 -1 0 0 -1 0 0 -1 
0 0 -1 0 0 -1 0.0128184 0.0128184 -0.999836 
0.707078 0.707078 -0.0090651 0.707078 0.707078 -0.0090651 -0.0128195 0 -0.999918 
-0.999918 0 -0.0128195 0 0 -1 0 0 -1 
0 0 -1 0 0 -1 0 0 -1 
0 0 -1 0 0 -1 0 0 -1 
0 0 -1 0 0 -1 0 0 -1 
0 0 -1 0.0128184 0.0128184 -0.999836 0.707078 0.707078 -0.0090651 
0.707078 0.707078 -0.0090651 -0.0128184 0.0128184 -0.999836 -0.999836 0.0128184 -0.0128184 
0 0.0128195 -0.999918 0 0 -1 0 0 -1 
0 0 -1 0 0 -1 0 0 -1 
0 0 -1 0 0 -1 0 0 -1 
0 0 -1 0 0 -1 0.0128184 0.0128184 -0.999836 
0.707078 0.707078 -0.0090651 0.707078 0.707078 -0.0090651 -0.0128184 0.999836 -0.0128184 
-0.702501 0.711624 -0.00912339 -0.711624 0.702501 -0.00912339 -0.0128195 0 -0.999918 
0 0 -1 0 0 -1 0 0 -1 
0 0 -1 0 0 -1 0 0 -1 
0 0 -1 0 0 -1 0.0128184 0.0128184 -0.999836 
0.707078 0.707078 -0.0090651 0.707078 0.707078 -0.0090651 -0.0128184 0.0128184 -0.999836 
-0.999836 0.0128184 -0.0128184 0 0.0128195 -0.999918 0 0.0128195 -0.999918 
0 0.0128195 -0.999918 0 0.0128195 -0.999918 0 0.0128195 -0.999918 
0 0.0128195 -0.999918 0 0.0128195 -0.999918 0.0128184 0.0128184 -0.999836 
0.707078 0.707078 -0.0090651 0.707078 0.707078 -0.0090651 -0.0128184 0.999836 -0.0128184 
0 0.999918 -0.0128195 0 0.999918 -0.0128195 0 0.999918 -0.0128195 
0 0.999918 -0.0128195 0 0.999918 -0.0128195 0 0.999918 -0.0128195 
0 0.999918 -0.0128195 0.0128184 0.999836 -0.0128184 -0.0090651 -0.707078 -0.707078 
-0.0128184 -0.999836 -0.0128184 -0.707078 -0.707078 -0.0090651 0 -0.707107 -0.707107 
0 -0.707107 -0.707107 0.0090651 -0.707078 -0.707078 0.0090651 -0.707078 -0.707078 
0.707078 -0.707078 -0.0090651 -0.0128195 -0.999918 0 -0.707107 -0.707107 0 
0 -1 0 -0.70253 -0.711654 0 0.70253 -0.711654 0 
0.0128195 -0.999918 0 0.579817 -0.579817 -0.572384 -0.707107 -0.707107 0 
-0.707107 -0.707107 0 0.57735 -0.57735 -0.57735 0.57735 -0.57735 -0.57735 
0.57735 -0.57735 -0.57735 -0.707107 -0.707107 0 -0.707107 -0.707107 0 
0.579817 -0.579817 -0.572384 0.579817 -0.579817 -0.572384 -0.707107 -0.707107 0 
-0.707107 -0.707107 0 0.57735 -0.57735 -0.57735 0.57735 -0.57735 -0.57735 
0.57735 -0.57735 -0.57735 -0.707107 -0.707107 0 -0.707107 -0.707107 0 
0.579817 -0.579817 -0.572384 0.999918 -0.0128195 0 -0.707078 -0.0090651 -0.707078 
-0.707078 -0.707078 -0.0090651 -0.999836 -0.0128184 -0.0128184 1 0 0 
-0.579817 -0.572384 -0.579817 -0.579817 -0.572384 -0.579817 1 0 0 
-0.57735 -0.57735 -0.57735 -0.57735 -0.57735 -0.57735 -0.999836 -0.0128184 -0.0128184 
1 0 0 -1 0 0 1 0 0 
-1 0 0 1 0 0 -0.711654 -0.70253 0 
1 0 0 -0.707078 -0.0090651 -0.707078 -0.707078 -0.707078 -0.0090651 
-0.999836 -0.0128184 -0.0128184 1 0 0 -0.579817 -0.572384 -0.579817 
-0.579817 -0.572384 -0.579817 1 0 0 -0.57735 -0.57735 -0.57735 
-0.57735 -0.57735 -0.57735 -0.999836 -0.0128184 -0.0128184 1 0 0 
-1 0 0 0.999918 0.0128195 0 -1 0 0 
0.707107 0.707107 0 0.707107 0.707107 0 -1 0 0 
0.711654 0.70253 0 0.707107 0.707107 0 -1 0 0 
1 0 0 -1 0 0 1 0 0 
-0.999918 0.0128195 0 1 0 0 -0.0128195 0.999918 0 
-0.70253 0.711654 0 -0.711654 0.70253 0 0.999918 0.0128195 0 
-1 0 0 0.707107 0.707107 0 0.707107 0.707107 0 
-1 0 0 0.707107 0.707107 0 0.707107 0.707107 0 
-0.999918 0.0128195 0 0.707107 0.707107 0 0.707107 0.707107 0 
-0.0128195 0.999918 0 -0.70253 0.711654 0 -0.711654 0.70253 0 
0.707107 0.707107 0 0.707107 0.707107 0 -0.999918 0.0128195 0 
0.707107 0.707107 0 0.707107 0.707107 0 -0.0128195 0.999918 0 
0 1 0 0 1 0 0 1 0 
0 1 0 0 1 0 0 1 0 
0 1 0 0.0128195 0.999918 0 -0.0090651 -0.707078 -0.707078 
-0.0090651 -0.707078 -0.707078 -0.57735 -0.57735 -0.57735 0.0090651 -0.707078 -0.707078 
0.0090651 -0.707078 -0.707078 0.999836 -0.0128184 -0.0128184 -0.579817 -0.579817 -0.572384 
-0.579817 -0.579817 -0.572384 0.582317 -0.574851 -0.574851 -0.00912339 -0.711624 -0.702501 
-0.579817 -0.579817 -0.572384 0 -0.711654 -0.70253 -0.574851 -0.582317 -0.574851 
0.574851 -0.582317 -0.574851 0 -0.711654 -0.70253 0.572384 -0.579817 -0.579817 
0 -0.707107 -0.707107 0.0128184 -0.0128184 -0.999836 0.0128184 -0.999836 -0.0128184 
0.999836 -0.0128184 -0.0128184 -0.579817 -0.579817 -0.572384 -0.579817 -0.579817 -0.572384 
0.579817 -0.572384 -0.579817 0.711624 -0.702501 -0.00912339 -0.579817 -0.579817 -0.572384 
-0.579817 -0.579817 -0.572384 0.572384 -0.579817 -0.579817 0.702501 -0.711624 -0.00912339 
0.0128184 -0.0128184 -0.999836 0.0128184 -0.999836 -0.0128184 0.999836 -0.0128184 -0.0128184 
-0.579817 -0.579817 -0.572384 -0.579817 -0.579817 -0.572384 0.579817 -0.572384 -0.579817 
0.999918 0 -0.0128195 -0.579817 -0.579817 -0.572384 -0.579817 -0.579817 -0.572384 
1 0 0 -0.579817 -0.579817 -0.572384 -0.579817 -0.579817 -0.572384 
1 0 0 -0.57735 -0.57735 -0.57735 -0.57735 -0.57735 -0.57735 
-0.999836 -0.0128184 -0.0128184 1 0 0 -0.711654 0 -0.70253 
1 0 0 -0.711654 0 -0.70253 1 0 0 
-0.711654 0 -0.70253 1 0 0 -0.582317 -0.574851 -0.574851 
1 0 0 -0.579817 -0.579817 -0.572384 -0.579817 -0.579817 -0.572384 
1 0 0 -0.57735 -0.57735 -0.57735 -0.57735 -0.57735 -0.57735 
-0.999836 -0.0128184 -0.0128184 1 0 0 -1 0 0 
0.999918 0 0.0128195 -1 0 0 0.999836 0.0128184 0.0128184 
-1 0 0 0.707078 0.707078 0.0090651 0.707078 0.707078 0.0090651 
-1 0 0 0.711654 0.70253 0 0.707078 0.707078 0.0090651 
-1 0 0 0.999918 0 0.0128195 -1 0 0 
0.999918 0 0.0128195 -0.999918 0.0128195 0 0.999918 0 0.0128195 
-0.0128195 0.999918 0 -0.574851 0.582317 -0.574851 -0.582317 0.574851 -0.574851 
0.999836 0.0128184 0.0128184 -0.711654 0 -0.70253 0.707078 0.707078 0.0090651 
0.707078 0.707078 0.0090651 -1 0 0 0.707078 0.707078 0.0090651 
0.707078 0.707078 0.0090651 -0.999918 0.0128195 0 0.707078 0.707078 0.0090651 
0.707078 0.707078 0.0090651 -0.0128195 0.999918 0 -0.70253 0.711654 0 
-0.711654 0.70253 0 0.707078 0.707078 0.0090651 0.707078 0.707078 0.0090651 
-0.999836 0.0128184 0.0128184 0.707078 0.707078 0.0090651 0.707078 0.707078 0.0090651 
-0.0128184 0.999836 0.0128184 0 0.999918 0.0128195 0 1 0 
0 0.999918 0.0128195 0 0.999918 0.0128195 0 0.999918 0.0128195 
0 0.999918 0.0128195 0 0.999918 0.0128195 0.0128184 0.999836 0.0128184 
-0.0090651 -0.707078 -0.707078 -0.0090651 -0.707078 -0.707078 -0.57735 -0.57735 -0.57735 
0.0090651 -0.707078 -0.707078 0.0090651 -0.707078 -0.707078 0.999836 -0.0128184 -0.0128184 
-0.57735 -0.57735 -0.57735 -0.57735 -0.57735 -0.57735 -0.57735 -0.57735 -0.57735 
0.582317 -0.574851 -0.574851 -0.0090651 -0.707078 -0.707078 -0.0090651 -0.707078 -0.707078 
-0.57735 -0.57735 -0.57735 0 -0.707107 -0.707107 0 -0.707107 -0.707107 
-0.572384 -0.579817 -0.579817 -0.572384 -0.579817 -0.579817 0.572384 -0.579817 -0.579817 
0.572384 -0.579817 -0.579817 0 -0.707107 -0.707107 0 -0.707107 -0.707107 
0.0090651 -0.707078 -0.707078 0.0090651 -0.707078 -0.707078 0.57735 -0.57735 -0.57735 
-0.57735 -0.57735 -0.57735 -0.57735 -0.57735 -0.57735 -0.57735 -0.57735 -0.57735 
0.579817 -0.579817 -0.572384 0.999918 -0.0128195 0 -0.0128184 -0.0128184 -0.999836 
-0.0090651 -0.707078 -0.707078 -0.707078 -0.0090651 -0.707078 -0.572384 -0.579817 -0.579817 
-0.572384 -0.579817 -0.579817 0.711654 -0.70253 0 -0.579817 -0.572384 -0.579817 
-0.579817 -0.572384 -0.579817 0.70253 -0.711654 0 0.0128195 -0.999918 0 
0.999918 -0.0128195 0 -0.0128184 -0.0128184 -0.999836 -0.0090651 -0.707078 -0.707078 
-0.707078 -0.0090651 -0.707078 -0.572384 -0.579817 -0.579817 -0.572384 -0.579817 -0.579817 
1 0 0 -0.579817 -0.572384 -0.579817 -0.579817 -0.572384 -0.579817 
1 0 0 -0.57735 -0.57735 -0.57735 -0.57735 -0.57735 -0.57735 
-0.999836 -0.0128184 -0.0128184 1 0 0 -0.711654 -0.70253 0 