# vtk DataFile Version 3.0
vtk output
ASCII
DATASET POLYDATA
POINTS 4808 float
53 56 15.0099 53 55.0099 16 52.0099 56 16 
54 56 15.0099 54 55.0099 16 55 56 15.0099 
55 55.0099 16 56 56 15.0099 56 55.0099 16 
57 56 15.0099 57 55.0099 16 58 56 15.0099 
58 55.0099 16 59 56 15.0099 59 55.0099 16 
60 56 15.0099 60 55.0099 16 60.9901 56 16 
52 57 15.0099 52 56.0099 16 51.0099 57 16 
53 57 15.0099 54 57 15.0099 55 57 15.0099 
56 57 15.0099 57 57 15.0099 58 57 15.0099 
59 57 15.0099 59.9901 57 16 60 56.9901 16 
49 58 15.0099 49 57.0099 16 48.0099 58 16 
50 58 15.0099 50 57.0099 16 51 58 15.0099 
51 57.0099 16 52 58 15.0099 53 58 15.0099 
54 58 15.0099 55 58 15.0099 56 58 15.0099 
57 58 15.0099 58 58 15.0099 58.9901 58 16 
59 57.9901 16 48 59 15.0099 48 58.0099 16 
47.0099 59 16 49 59 15.0099 50 59 15.0099 
51 59 15.0099 52 59 15.0099 53 59 15.0099 
54 59 15.0099 55 59 15.0099 56 59 15.0099 
57 59 15.0099 57.9901 59 16 58 58.9901 16 
47 60 15.0099 47 59.0099 16 46.0099 60 16 
48 60 15.0099 49 60 15.0099 50 60 15.0099 
51 60 15.0099 52 60 15.0099 53 60 15.0099 
54 60 15.0099 54.9901 60 16 55 59.9901 16 
56 59.9901 16 57 59.9901 16 46 61 15.0099 
46 60.0099 16 45.0099 61 16 47 61 15.0099 
48 61 15.0099 49 61 15.0099 50 61 15.0099 
51 61 15.0099 52 61 15.0099 53 61 15.0099 
53.9901 61 16 54 60.9901 16 45 62 15.0099 
45 61.0099 16 44.0099 62 16 46 62 15.0099 
47 62 15.0099 48 62 15.0099 49 62 15.0099 
50 62 15.0099 50.9901 62 16 51 61.9901 16 
52 61.9901 16 53 61.9901 16 45 63 15.0099 
44.0099 63 16 46 63 15.0099 47 63 15.0099 
48 63 15.0099 49 63 15.0099 50 63 15.0099 
50.9901 63 16 45 64 15.0099 44.0099 64 16 
46 64 15.0099 47 64 15.0099 48 64 15.0099 
49 64 15.0099 50 64 15.0099 50.9901 64 16 
45 65 15.0099 44.0099 65 16 46 65 15.0099 
47 65 15.0099 48 65 15.0099 49 65 15.0099 
49.9901 65 16 50 64.9901 16 45 66 15.0099 
44.0099 66 16 46 66 15.0099 47 66 15.0099 
48 66 15.0099 48.9901 66 16 49 65.9901 16 
45 67 15.0099 44.0099 67 16 46 67 15.0099 
47 67 15.0099 47.9901 67 16 48 66.9901 16 
45 68 15.0099 44.0099 68 16 46 68 15.0099 
46.9901 68 16 47 67.9901 16 45 69 15.0099 
44.0099 69 16 46 69 15.0099 46.9901 69 16 
45 70 15.0099 44.0099 70 16 46 70 15.0099 
46.9901 70 16 45 71 15.0099 44.0099 71 16 
45.9901 71 16 46 70.9901 16 45 71.9901 16 
52 55 16.0099 52 54.0099 17 51.0099 55 17 
53 55 16.0099 53 54.0099 17 54 55 16.0099 
54 54.0099 17 55 55 16.0099 55 54.0099 17 
56 55 16.0099 56 54.0099 17 57 55 16.0099 
57 54.0099 17 58 55 16.0099 58 54.0099 17 
59 55 16.0099 59 54.0099 17 59.9901 55 17 
52 56 16.0099 51.0099 56 17 59.9901 56 17 
60 56 16.9901 49 57 16.0099 49 56.0099 17 
48.0099 57 17 50 57 16.0099 50 56.0099 17 
51 57 16.0099 51 56.0099 17 59 57 16.9901 
58.9901 57 17 59 56.9901 17 48 58 16.0099 
48 57.0099 17 47.0099 58 17 58 58 16.9901 
57.9901 58 17 58 57.9901 17 47 59 16.0099 
47 58.0099 17 46.0099 59 17 56 59 16.9901 
55.9901 59 17 56 58.9901 17 57 58.9901 17 
57 59 16.9901 46 60 16.0099 46 59.0099 17 
45.0099 60 17 54.9901 60 17 55 59.9901 17 
45 61 16.0099 45 60.0099 17 44.0099 61 17 
53.9901 61 17 54 60.9901 17 44 62 16.0099 
44 61.0099 17 43.0099 62 17 50.9901 62 17 
51 61.9901 17 52 61.9901 17 53 61.9901 17 
44 63 16.0099 43.0099 63 17 50.9901 63 17 
44 64 16.0099 43.0099 64 17 50.9901 64 17 
44 65 16.0099 43.0099 65 17 49.9901 65 17 
50 64.9901 17 44 66 16.0099 43.0099 66 17 
48.9901 66 17 49 65.9901 17 44 67 16.0099 
43.0099 67 17 47.9901 67 17 48 66.9901 17 
44 68 16.0099 43.0099 68 17 46.9901 68 17 
47 67.9901 17 44 69 16.0099 43.0099 69 17 
46.9901 69 17 44 70 16.0099 43.0099 70 17 
46.9901 70 17 44 71 16.0099 43.0099 71 17 
45.9901 71 17 46 70.9901 17 44 71.9901 17 
45 71.9901 17 57 50 17.0099 57 49.0099 18 
56.0099 50 18 58 50 17.0099 58 49.0099 18 
59 50 17.0099 59 49.0099 18 60 50 17.0099 
60 49.0099 18 61 50 17.0099 61 49.0099 18 
62 50 17.0099 62 49.0099 18 62.9901 50 18 
56 51 17.0099 56 50.0099 18 55.0099 51 18 
57 51 17.0099 58 51 17.0099 59 51 17.0099 
60 51 17.0099 61 51 17.0099 62 51 17.0099 
62.9901 51 18 53 52 17.0099 53 51.0099 18 
52.0099 52 18 54 52 17.0099 54 51.0099 18 
55 52 17.0099 55 51.0099 18 56 52 17.0099 
57 52 17.0099 58 52 17.0099 59 52 17.0099 
60 52 17.0099 61 52 17.0099 62 52 17.0099 
63 51.0099 18 63 52 17.0099 64 52 17.0099 
64 51.0099 18 64.9901 52 18 52 53 17.0099 
52 52.0099 18 51.0099 53 18 53 53 17.0099 
54 53 17.0099 55 53 17.0099 56 53 17.0099 
57 53 17.0099 58 53 17.0099 59 53 17.0099 
60 53 17.0099 61 53 17.0099 62 53 17.0099 
63 53 17.0099 63.9901 53 18 64 52.9901 18 
51 54 17.0099 51 53.0099 18 50.0099 54 18 
52 54 17.0099 53 54 17.0099 54 54 17.0099 
55 54 17.0099 56 54 17.0099 57 54 17.0099 
58 54 17.0099 59 54 17.0099 60 54 17.0099 
60.9901 54 18 61 53.9901 18 62 53.9901 18 
63 53.9901 18 50 55 17.0099 50 54.0099 18 
49.0099 55 18 51 55 17.0099 60 54.9901 18 
59.9901 55 18 49 56 17.0099 49 55.0099 18 
48.0099 56 18 50 56 17.0099 51 56 17.0099 
59 56 17.9901 58.9901 56 18 59 55.9901 18 
48 57 17.0099 48 56.0099 18 47.0099 57 18 
58 57 17.9901 57.9901 57 18 58 56.9901 18 
47 58 17.0099 47 57.0099 18 46.0099 58 18 
57 58 17.9901 56.9901 58 18 57 57.9901 18 
46 59 17.0099 46 58.0099 18 45.0099 59 18 
55.9901 59 18 56 58.9901 18 45 60 17.0099 
45 59.0099 18 44.0099 60 18 54.9901 60 18 
55 59.9901 18 44 61 17.0099 44 60.0099 18 
43.0099 61 18 53.9901 61 18 54 60.9901 18 
43 62 17.0099 43 61.0099 18 42.0099 62 18 
51 62 17.0099 52 62 17.0099 52.9901 62 18 
53 61.9901 18 43 63 17.0099 42.0099 63 18 
51 63 17.0099 51.9901 63 18 52 62.9901 18 
43 64 17.0099 42.0099 64 18 50.9901 64 18 
51 63.9901 18 42 65 17.0099 42 64.0099 18 
41.0099 65 18 43 65 17.0099 49.9901 65 18 
50 64.9901 18 41 66 17.0099 41 65.0099 18 
40.0099 66 18 42 66 17.0099 43 66 17.0099 
48.9901 66 18 49 65.9901 18 41 67 17.0099 
40.0099 67 18 42 67 17.0099 43 67 17.0099 
48 67 17.0099 48.9901 67 18 41 68 17.0099 
40.0099 68 18 42 68 17.0099 43 68 17.0099 
47 68 17.0099 48 68 17.0099 48.9901 68 18 
40 69 17.0099 40 68.0099 18 39.0099 69 18 
41 69 17.0099 42 69 17.0099 43 69 17.0099 
47 69 17.0099 47.9901 69 18 48 68.9901 18 
39 70 17.0099 39 69.0099 18 38.0099 70 18 
40 70 17.0099 41 70 17.0099 42 70 17.0099 
43 70 17.0099 46.9901 70 18 47 69.9901 18 
39 71 17.0099 38.0099 71 18 40 71 17.0099 
41 71 17.0099 42 71 17.0099 43 71 17.0099 
45.9901 71 18 46 70.9901 18 39 72 17.0099 
38.0099 72 18 40 72 17.0099 41 72 17.0099 
42 72 17.0099 43 72 17.0099 44 72 17.0099 
44.9901 72 18 45 71.9901 18 39 73 17.0099 
38.0099 73 18 40 73 17.0099 41 73 17.0099 
42 73 17.0099 43 73 17.0099 44 73 17.0099 
44.9901 73 18 39 74 17.0099 38.0099 74 18 
40 74 17.0099 41 74 17.0099 42 74 17.0099 
43 74 17.0099 44 74 17.0099 44.9901 74 18 
39 75 17.0099 38.0099 75 18 40 75 17.0099 
41 75 17.0099 42 75 17.0099 43 75 17.0099 
44 75 17.0099 44.9901 75 18 39 75.9901 18 
40 75.9901 18 40.0099 76 18 41 76 17.0099 
42 76 17.0099 43 76 17.0099 44 76 17.0099 
44.9901 76 18 41 77 17.0099 40.0099 77 18 
42 77 17.0099 43 77 17.0099 44 77 17.0099 
44.9901 77 18 41 77.9901 18 42 77.9901 18 
42.0099 78 18 43 78 17.0099 44 78 17.0099 
44.9901 78 18 43 79 17.0099 42.0099 79 18 
44 79 17.0099 44.9901 79 18 43 80 17.0099 
42.0099 80 18 44 80 17.0099 44.9901 80 18 
43 81 17.0099 42.0099 81 18 43.9901 81 18 
44 80.9901 18 43 81.9901 18 57 49.0099 19 
56.0099 50 19 58 49.0099 19 59 49.0099 19 
60 49.0099 19 61 49.0099 19 62 49.0099 19 
62.9901 50 19 55 51 18.0099 55 50.0099 19 
54.0099 51 19 56 50.0099 19 63 50.0099 19 
63 51 18.0099 64 51 18.0099 64 50.0099 19 
64.9901 51 19 53 51.0099 19 52.0099 52 19 
54 51.0099 19 64.9901 52 19 52 52.0099 19 
51.0099 53 19 63.9901 53 19 64 52.9901 19 
51 53.0099 19 50.0099 54 19 60.9901 54 19 
61 53.9901 19 62 53.9901 19 63 53.9901 19 
50 54.0099 19 49.0099 55 19 59.9901 55 19 
60 54.9901 19 49 55.0099 19 48.0099 56 19 
58.9901 56 19 59 55.9901 19 48 56.0099 19 
47.0099 57 19 57.9901 57 19 58 56.9901 19 
47 57.0099 19 46.0099 58 19 56.9901 58 19 
57 57.9901 19 46 59 18.9901 46.0099 59 19 
55.9901 59 19 56 58.9901 19 45 59.0099 19 
44.0099 60 19 46 59.0099 19 54.9901 60 19 
55 59.9901 19 44 61 18.9901 44.0099 61 19 
53.9901 61 19 54 60.9901 19 43 61.0099 19 
42.0099 62 19 44 61.0099 19 52.9901 62 19 
53 61.9901 19 42.0099 63 19 51.9901 63 19 
52 62.9901 19 42.0099 64 19 50.9901 64 19 
51 63.9901 19 42 64.0099 19 41.0099 65 19 
50 65 18.0099 50.9901 65 19 41 65.0099 19 
40.0099 66 19 48.9901 66 19 49 65.9901 19 
50 65.9901 19 40.0099 67 19 48.9901 67 19 
40.0099 68 19 48.9901 68 19 40 68.0099 19 
39.0099 69 19 47.9901 69 19 48 68.9901 19 
39 69.0099 19 38.0099 70 19 46.9901 70 19 
47 69.9901 19 38.0099 71 19 46 71 18.0099 
46.9901 71 19 38.0099 72 19 44.9901 72 19 
45 71.9901 19 46 71.9901 19 38.0099 73 19 
44.9901 73 19 38.0099 74 19 44.9901 74 19 
38.0099 75 19 44.9901 75 19 39 75.9901 19 
40 76 18.0099 39.0099 76 19 44.9901 76 19 
40 76.9901 19 40.0099 77 19 44.9901 77 19 
41 77.9901 19 42 78 18.0099 41.0099 78 19 
44.9901 78 19 42 79 18.0099 41.0099 79 19 
44.9901 79 19 42 80 18.0099 41.0099 80 19 
44.9901 80 19 42 80.9901 19 42.0099 81 19 
44 81 18.0099 44.9901 81 19 43 81.9901 19 
44 81.9901 19 57 50 19.9901 58 50 19.9901 
58.0099 50 20 59 49.0099 20 60 49.0099 20 
61 49.0099 20 62 49.0099 20 63 50 19.0099 
63 49.0099 20 64 50 19.0099 64 49.0099 20 
65 50 19.0099 65 49.0099 20 66 50 19.0099 
66 49.0099 20 67 50 19.0099 67 49.0099 20 
68 50 19.0099 68 49.0099 20 69 50 19.0099 
69 49.0099 20 70 50 19.0099 70 49.0099 20 
70.9901 50 20 55 51 19.9901 56 51 19.9901 
57 51 19.9901 57.0099 51 20 58 50.0099 20 
65 51 19.0099 66 51 19.0099 67 51 19.0099 
68 51 19.0099 69 51 19.0099 69.9901 51 20 
70 50.9901 20 53 52 19.9901 54 52 19.9901 
54.0099 52 20 55 51.0099 20 56 51.0099 20 
57 51.0099 20 64.9901 52 20 65 51.9901 20 
66 51.9901 20 66.0099 52 20 67 52 19.0099 
68 52 19.0099 68.9901 52 20 69 51.9901 20 
52 53 19.9901 53 53 19.9901 53.0099 53 20 
54 52.0099 20 63.9901 53 20 64 52.9901 20 
67 53 19.0099 66.0099 53 20 67.9901 53 20 
68 52.9901 20 51 54 19.9901 52 54 19.9901 
[...]
POINT_DATA 4808
SCALARS scalars float
LOOKUP_TABLE default
1 1 1 1 1 1 1 1 1 
1 1 1 1 1 1 1 1 1 
1 1 1 1 1 1 1 1 1 
1 1 1 1 1 1 1 1 1 
1 1 1 1 1 1 1 1 1 
1 1 1 1 1 1 1 1 1 
1 1 1 1 1 1 1 1 1 
1 1 1 1 1 1 1 1 1 
1 1 1 1 1 1 1 1 1 
1 1 1 1 1 1 1 1 1 
1 1 1 1 1 1 1 1 1 
1 1 1 1 1 1 1 1 1 
1 1 1 1 1 1 1 1 1 
1 1 1 1 1 1 1 1 1 
1 1 1 1 1 1 1 1 1 
1 1 1 1 1 1 1 1 1 
1 1 1 1 1 1 1 1 1 
1 1 1 1 1 1 1 1 1 
1 1 1 1 1 1 1 1 1 
1 1 1 1 1 1 1 1 1 
1 1 1 1 1 1 1 1 1 
1 1 1 1 1 1 1 1 1 
1 1 1 1 1 1 1 1 1 
1 1 1 1 1 1 1 1 1 
1 1 1 1 1 1 1 1 1 
1 1 1 1 1 1 1 1 1 
1 1 1 1 1 1 1 1 1 
1 1 1 1 1 1 1 1 1 
1 1 1 1 1 1 1 1 1 
1 1 1 1 1 1 1 1 1 
1 1 1 1 1 1 1 1 1 
1 1 1 1 1 1 1 1 1 
1 1 1 1 1 1 1 1 1 
1 1 1 1 1 1 1 1 1 
1 1 1 1 1 1 1 1 1 
1 1 1 1 1 1 1 1 1 
1 1 1 1 1 1 1 1 1 
1 1 1 1 1 1 1 1 1 
1 1 1 1 1 1 1 1 1 
1 1 1 1 1 1 1 1 1 
1 1 1 1 1 1 1 1 1 
1 1 1 1 1 1 1 1 1 
1 1 1 1 1 1 1 1 1 
1 1 1 1 1 1 1 1 1 
1 1 1 1 1 1 1 1 1 
1 1 1 1 1 1 1 1 1 
1 1 1 1 1 1 1 1 1 
1 1 1 1 1 1 1 1 1 
1 1 1 1 1 1 1 1 1 
1 1 1 1 1 1 1 1 1 
1 1 1 1 1 1 1 1 1 
1 1 1 1 1 1 1 1 1 
1 1 1 1 1 1 1 1 1 
1 1 1 1 1 1 1 1 1 
1 1 1 1 1 1 1 1 1 
1 1 1 1 1 1 1 1 1 
1 1 1 1 1 1 1 1 1 
1 1 1 1 1 1 1 1 1 
1 1 1 1 1 1 1 1 1 
1 1 1 1 1 1 1 1 1 
1 1 1 1 1 1 1 1 1 
1 1 1 1 1 1 1 1 1 
1 1 1 1 1 1 1 1 1 
1 1 1 1 1 1 1 1 1 
1 1 1 1 1 1 1 1 1 
1 1 1 1 1 1 1 1 1 
1 1 1 1 1 1 1 1 1 
1 1 1 1 1 1 1 1 1 
1 1 1 1 1 1 1 1 1 
1 1 1 1 1 1 1 1 1 
1 1 1 1 1 1 1 1 1 
1 1 1 1 1 1 1 1 1 
1 1 1 1 1 1 1 1 1 
1 1 1 1 1 1 1 1 1 
1 1 1 1 1 1 1 1 1 
1 1 1 1 1 1 1 1 1 
1 1 1 1 1 1 1 1 1 
1 1 1 1 1 1 1 1 1 
1 1 1 1 1 1 1 1 1 
1 1 1 1 1 1 1 1 1 
1 1 1 1 1 1 1 1 1 
1 1 1 1 1 1 1 1 1 
1 1 1 1 1 1 1 1 1 
1 1 1 1 1 1 1 1 1 
1 1 1 1 1 1 1 1 1 
1 1 1 1 1 1 1 1 1 
1 1 1 1 1 1 1 1 1 
1 1 1 1 1 1 1 1 1 
1 1 1 1 1 1 1 1 1 
1 1 1 1 1 1 1 1 1 
1 1 1 1 1 1 1 1 1 
1 1 1 1 1 1 1 1 1 
1 1 1 1 1 1 1 1 1 
1 1 1 1 1 1 1 1 1 
1 1 1 1 1 1 1 1 1 
1 1 1 1 1 1 1 1 1 
1 1 1 1 1 1 1 1 1 
1 1 1 1 1 1 1 1 1 
1 1 1 1 1 1 1 1 1 
1 1 1 1 1 1 1 1 1 
1 1 1 1 1 1 1 1 1 
1 1 1 1 1 1 1 1 1 
1 1 1 1 1 1 1 1 1 
1 1 1 1 1 1 1 1 1 
1 1 1 1 1 1 1 1 1 
1 1 1 1 1 1 1 1 1 
1 1 1 1 1 1 1 1 1 
1 1 1 1 1 1 1 1 1 
1 1 1 1 1 1 1 1 1 
1 1 1 1 1 1 1 1 1 
1 1 1 1 1 1 1 1 1 
1 1 1 1 1 1 1 1 1 
1 1 1 1 1 1 1 1 1 
1 1 1 1 1 1 1 1 1 
1 1 1 1 1 1 1 1 1 
1 1 1 1 1 1 1 1 1 
1 1 1 1 1 1 1 1 1 
1 1 1 1 1 1 1 1 1 
1 1 1 1 1 1 1 1 1 
1 1 1 1 1 1 1 1 1 
1 1 1 1 1 1 1 1 1 
1 1 1 1 1 1 1 1 1 
1 1 1 1 1 1 1 1 1 
1 1 1 1 1 1 1 1 1 
1 1 1 1 1 1 1 1 1 
1 1 1 1 1 1 1 1 1 
1 1 1 1 1 1 1 1 1 
1 1 1 1 1 1 1 1 1 
1 1 1 1 1 1 1 1 1 
1 1 1 1 1 1 1 1 1 
1 1 1 1 1 1 1 1 1 
1 1 1 1 1 1 1 1 1 
1 1 1 1 1 1 1 1 1 
1 1 1 1 1 1 1 1 1 
1 1 1 1 1 1 1 1 1 
1 1 1 1 1 1 1 1 1 
1 1 1 1 1 1 1 1 1 
1 1 1 1 1 1 1 1 1 
1 1 1 1 1 1 1 1 1 
1 1 1 1 1 1 1 1 1 
1 1 1 1 1 1 1 1 1 
1 1 1 1 1 1 1 1 1 
1 1 1 1 1 1 1 1 1 
1 1 1 1 1 1 1 1 1 
1 1 1 1 1 1 1 1 1 
1 1 1 1 1 1 1 1 1 
1 1 1 1 1 1 1 1 1 
1 1 1 1 1 1 1 1 1 
1 1 1 1 1 1 1 1 1 
1 1 1 1 1 1 1 1 1 
1 1 1 1 1 1 1 1 1 
1 1 1 1 1 1 1 1 1 
1 1 1 1 1 1 1 1 1 
1 1 1 1 1 1 1 1 1 
1 1 1 1 1 1 1 1 1 
1 1 1 1 1 1 1 1 1 
1 1 1 1 1 1 1 1 1 
1 1 1 1 1 1 1 1 1 
1 1 1 1 1 1 1 1 1 
1 1 1 1 1 1 1 1 1 
1 1 1 1 1 1 1 1 1 
1 1 1 1 1 1 1 1 1 
1 1 1 1 1 1 1 1 1 
1 1 1 1 1 1 1 1 1 
1 1 1 1 1 1 1 1 1 
1 1 1 1 1 1 1 1 1 
1 1 1 1 1 1 1 1 1 
1 1 1 1 1 1 1 1 1 
1 1 1 1 1 1 1 1 1 
1 1 1 1 1 1 1 1 1 
1 1 1 1 1 1 1 1 1 
1 1 1 1 1 1 1 1 1 
1 1 1 1 1 1 1 1 1 
1 1 1 1 1 1 1 1 1 
1 1 1 1 1 1 1 1 1 
1 1 1 1 1 1 1 1 1 
1 1 1 1 1 1 1 1 1 
1 1 1 1 1 1 1 1 1 
1 1 1 1 1 1 1 1 1 
1 1 1 1 1 1 1 1 1 
1 1 1 1 1 1 1 1 1 
1 1 1 1 1 1 1 1 1 
1 1 1 1 1 1 1 1 1 
1 1 1 1 1 1 1 1 1 
1 1 1 1 1 1 1 1 1 
1 1 1 1 1 1 1 1 1 
1 1 1 1 1 1 1 1 1 
1 1 1 1 1 1 1 1 1 
1 1 1 1 1 1 1 1 1 
1 1 1 1 1 1 1 1 1 
1 1 1 1 1 1 1 1 1 
1 1 1 1 1 1 1 1 1 
1 1 1 1 1 1 1 1 1 
1 1 1 1 1 1 1 1 1 
1 1 1 1 1 1 1 1 1 
1 1 1 1 1 1 1 1 1 
1 1 1 1 1 1 1 1 1 
1 1 1 1 1 1 1 1 1 
1 1 1 1 1 1 1 1 1 
1 1 1 1 1 1 1 1 1 
1 1 1 1 1 1 1 1 1 
1 1 1 1 1 1 1 1 1 
1 1 1 1 1 1 1 1 1 
1 1 1 1 1 1 1 1 1 
1 1 1 1 1 1 1 1 1 
1 1 1 1 1 1 1 1 1 
1 1 1 1 1 1 1 1 1 
1 1 1 1 1 1 1 1 1 
1 1 1 1 1 1 1 1 1 
1 1 1 1 1 1 1 1 1 
1 1 1 1 1 1 1 1 1 
1 1 1 1 1 1 1 1 1 
1 1 1 1 1 1 1 1 1 
1 1 1 1 1 1 1 1 1 
1 1 1 1 1 1 1 1 1 
1 1 1 1 1 1 1 1 1 
1 1 1 1 1 1 1 1 1 
1 1 1 1 1 1 1 1 1 
1 1 1 1 1 1 1 1 1 
1 1 1 1 1 1 1 1 1 
1 1 1 1 1 1 1 1 1 
1 1 1 1 1 1 1 1 1 
1 1 1 1 1 1 1 1 1 
1 1 1 1 1 1 1 1 1 
1 1 1 1 1 1 1 1 1 
1 1 1 1 1 1 1 1 1 
1 1 1 1 1 1 1 1 1 
1 1 1 1 1 1 1 1 1 
1 1 1 1 1 1 1 1 1 
1 1 1 1 1 1 1 1 1 
1 1 1 1 1 1 1 1 1 
1 1 1 1 1 1 1 1 1 
1 1 1 1 1 1 1 1 1 
1 1 1 1 1 1 1 1 1 
1 1 1 1 1 1 1 1 1 
1 1 1 1 1 1 1 1 1 
1 1 1 1 1 1 1 1 1 
1 1 1 1 1 1 1 1 1 
1 1 1 1 1 1 1 1 1 
1 1 1 1 1 1 1 1 1 
1 1 1 1 1 1 1 1 1 
1 1 1 1 1 1 1 1 1 
1 1 1 1 1 1 1 1 1 
1 1 1 1 1 1 1 1 1 
1 1 1 1 1 1 1 1 1 
1 1 1 1 1 1 1 1 1 
1 1 1 1 1 1 1 1 1 
1 1 1 1 1 1 1 1 1 
1 1 1 1 1 1 1 1 1 
1 1 1 1 1 1 1 1 1 
1 1 1 1 1 1 1 1 1 
1 1 1 1 1 1 1 1 1 
1 1 1 1 1 1 1 1 1 
1 1 1 1 1 1 1 1 1 
1 1 1 1 1 1 1 1 1 
1 1 1 1 1 1 1 1 1 
1 1 1 1 1 1 1 1 1 
1 1 1 1 1 1 1 1 1 
1 1 1 1 1 1 1 1 1 
1 1 1 1 1 1 1 1 1 
1 1 1 1 1 1 1 1 1 
1 1 1 1 1 1 1 1 1 
1 1 1 1 1 1 1 1 1 
1 1 1 1 1 1 1 1 1 
1 1 1 1 1 1 1 1 1 
1 1 1 1 1 1 1 1 1 
1 1 1 1 1 1 1 1 1 
1 1 1 1 1 1 1 1 1 
1 1 1 1 1 1 1 1 1 
1 1 1 1 1 1 1 1 1 
1 1 1 1 1 1 1 1 1 
1 1 1 1 1 1 1 1 1 
1 1 1 1 1 1 1 1 1 
1 1 1 1 1 1 1 1 1 
1 1 1 1 1 1 1 1 1 
1 1 1 1 1 1 1 1 1 
1 1 1 1 1 1 1 1 1 
1 1 1 1 1 1 1 1 1 
1 1 1 1 1 1 1 1 1 
1 1 1 1 1 1 1 1 1 
1 1 1 1 1 1 1 1 1 
1 1 1 1 1 1 1 1 1 
1 1 1 1 1 1 1 1 1 
1 1 1 1 1 1 1 1 1 
1 1 1 1 1 1 1 1 1 
1 1 1 1 1 1 1 1 1 
1 1 1 1 1 1 1 1 1 
1 1 1 1 1 1 1 1 1 
1 1 1 1 1 1 1 1 1 
1 1 1 1 1 1 1 1 1 
1 1 1 1 1 1 1 1 1 
1 1 1 1 1 1 1 1 1 
1 1 1 1 1 1 1 1 1 
1 1 1 1 1 1 1 1 1 
1 1 1 1 1 1 1 1 1 
1 1 1 1 1 1 1 1 1 
1 1 1 1 1 1 1 1 1 
1 1 1 1 1 1 1 1 1 
1 1 1 1 1 1 1 1 1 
1 1 1 1 1 1 1 1 1 
1 1 1 1 1 1 1 1 1 
1 1 1 1 1 1 1 1 1 
1 1 1 1 1 1 1 1 1 
1 1 1 1 1 1 1 1 1 
1 1 1 1 1 1 1 1 1 
1 1 1 1 1 1 1 1 1 
1 1 1 1 1 1 1 1 1 
1 1 1 1 1 1 1 1 1 
1 1 1 1 1 1 1 1 1 
1 1 1 1 1 1 1 1 1 
1 1 1 1 1 1 1 1 1 
1 1 1 1 1 1 1 1 1 
1 1 1 1 1 1 1 1 1 
1 1 1 1 1 1 1 1 1 
1 1 1 1 1 1 1 1 1 
1 1 1 1 1 1 1 1 1 
1 1 1 1 1 1 1 1 1 
1 1 1 1 1 1 1 1 1 
1 1 1 1 1 1 1 1 1 
1 1 1 1 1 1 1 1 1 
1 1 1 1 1 1 1 1 1 
1 1 1 1 1 1 1 1 1 
1 1 1 1 1 1 1 1 1 
1 1 1 1 1 1 1 1 1 
1 1 1 1 1 1 1 1 1 
1 1 1 1 1 1 1 1 1 
1 1 1 1 1 1 1 1 1 
1 1 1 1 1 1 1 1 1 
1 1 1 1 1 1 1 1 1 
1 1 1 1 1 1 1 1 1 
1 1 1 1 1 1 1 1 1 
1 1 1 1 1 1 1 1 1 
1 1 1 1 1 1 1 1 1 
1 1 1 1 1 1 1 1 1 
1 1 1 1 1 1 1 1 1 
1 1 1 1 1 1 1 1 1 
1 1 1 1 1 1 1 1 1 
1 1 1 1 1 1 1 1 1 
1 1 1 1 1 1 1 1 1 
1 1 1 1 1 1 1 1 1 
1 1 1 1 1 1 1 1 1 
1 1 1 1 1 1 1 1 1 
1 1 1 1 1 1 1 1 1 
1 1 1 1 1 1 1 1 1 
1 1 1 1 1 1 1 1 1 
1 1 1 1 1 1 1 1 1 
1 1 1 1 1 1 1 1 1 
1 1 1 1 1 1 1 1 1 
1 1 1 1 1 1 1 1 1 
1 1 1 1 1 1 1 1 1 
1 1 1 1 1 1 1 1 1 
1 1 1 1 1 1 1 1 1 
1 1 1 1 1 1 1 1 1 
1 1 1 1 1 1 1 1 1 
1 1 1 1 1 1 1 1 1 
1 1 1 1 1 1 1 1 1 
1 1 1 1 1 1 1 1 1 
1 1 1 1 1 1 1 1 1 
1 1 1 1 1 1 1 1 1 
1 1 1 1 1 1 1 1 1 
1 1 1 1 1 1 1 1 1 
1 1 1 1 1 1 1 1 1 
1 1 1 1 1 1 1 1 1 
1 1 1 1 1 1 1 1 1 
1 1 1 1 1 1 1 1 1 
1 1 1 1 1 1 1 1 1 
1 1 1 1 1 1 1 1 1 
1 1 1 1 1 1 1 1 1 
1 1 1 1 1 1 1 1 1 
1 1 1 1 1 1 1 1 1 
1 1 1 1 1 1 1 1 1 
1 1 1 1 1 1 1 1 1 
1 1 1 1 1 1 1 1 1 
1 1 1 1 1 1 1 1 1 
1 1 1 1 1 1 1 1 1 
1 1 1 1 1 1 1 1 1 
1 1 1 1 1 1 1 1 1 
1 1 1 1 1 1 1 1 1 
1 1 1 1 1 1 1 1 1 
1 1 1 1 1 1 1 1 1 
1 1 1 1 1 1 1 1 1 
1 1 1 1 1 1 1 1 1 
1 1 1 1 1 1 1 1 1 
1 1 1 1 1 1 1 1 1 
1 1 1 1 1 1 1 1 1 
1 1 1 1 1 1 1 1 1 
1 1 1 1 1 1 1 1 1 
1 1 1 1 1 1 1 1 1 
1 1 1 1 1 1 1 1 1 
1 1 1 1 1 1 1 1 1 
1 1 1 1 1 1 1 1 1 
1 1 1 1 1 1 1 1 1 
1 1 1 1 1 1 1 1 1 
1 1 1 1 1 1 1 1 1 
1 1 1 1 1 1 1 1 1 
1 1 1 1 1 1 1 1 1 
1 1 1 1 1 1 1 1 1 
1 1 1 1 1 1 1 1 1 
1 1 1 1 1 1 1 1 1 
1 1 1 1 1 1 1 1 1 
1 1 1 1 1 1 1 1 1 
1 1 1 1 1 1 1 1 1 
1 1 1 1 1 1 1 1 1 
1 1 1 1 1 1 1 1 1 
1 1 1 1 1 1 1 1 1 
1 1 1 1 1 1 1 1 1 
1 1 1 1 1 1 1 1 1 
1 1 1 1 1 1 1 1 1 
1 1 1 1 1 1 1 1 1 
1 1 1 1 1 1 1 1 1 
1 1 1 1 1 1 1 1 1 
1 1 1 1 1 1 1 1 1 
1 1 1 1 1 1 1 1 1 
1 1 1 1 1 1 1 1 1 
1 1 1 1 1 1 1 1 1 
1 1 1 1 1 1 1 1 1 
1 1 1 1 1 1 1 1 1 
1 1 1 1 1 1 1 1 1 
1 1 1 1 1 1 1 1 1 
1 1 1 1 1 1 1 1 1 
1 1 1 1 1 1 1 1 1 
1 1 1 1 1 1 1 1 1 
1 1 1 1 1 1 1 1 1 
1 1 1 1 1 1 1 1 1 
1 1 1 1 1 1 1 1 1 
1 1 1 1 1 1 1 1 1 
1 1 1 1 1 1 1 1 1 
1 1 1 1 1 1 1 1 1 
1 1 1 1 1 1 1 1 1 
1 1 1 1 1 1 1 1 1 
1 1 1 1 1 1 1 1 1 
1 1 1 1 1 1 1 1 1 
1 1 1 1 1 1 1 1 1 
1 1 1 1 1 1 1 1 1 
1 1 1 1 1 1 1 1 1 
1 1 1 1 1 1 1 1 1 
1 1 1 1 1 1 1 1 1 
1 1 1 1 1 1 1 1 1 
1 1 1 1 1 1 1 1 1 
1 1 1 1 1 1 1 1 1 
1 1 1 1 1 1 1 1 1 
1 1 1 1 1 1 1 1 1 
1 1 1 1 1 1 1 1 1 
1 1 1 1 1 1 1 1 1 
1 1 1 1 1 1 1 1 1 
1 1 1 1 1 1 1 1 1 
1 1 1 1 1 1 1 1 1 
1 1 1 1 1 1 1 1 1 
1 1 1 1 1 1 1 1 1 
1 1 1 1 1 1 1 1 1 
1 1 1 1 1 1 1 1 1 
1 1 1 1 1 1 1 1 1 
1 1 1 1 1 1 1 1 1 
1 1 1 1 1 1 1 1 1 
1 1 1 1 1 1 1 1 1 
1 1 1 1 1 1 1 1 1 
1 1 1 1 1 1 1 1 1 
1 1 1 1 1 1 1 1 1 
1 1 1 1 1 1 1 1 1 
1 1 1 1 1 1 1 1 1 
1 1 1 1 1 1 1 1 1 
1 1 1 1 1 1 1 1 1 
1 1 1 1 1 1 1 1 1 
1 1 1 1 1 1 1 1 1 
1 1 1 1 1 1 1 1 1 
1 1 1 1 1 1 1 1 1 
1 1 1 1 1 1 1 1 1 
1 1 1 1 1 1 1 1 1 
1 1 1 1 1 1 1 1 1 
1 1 1 1 1 1 1 1 1 
1 1 1 1 1 1 1 1 1 
1 1 1 1 1 1 1 1 1 
1 1 1 1 1 1 1 1 1 
1 1 1 1 1 1 1 1 1 
1 1 1 1 1 1 1 1 1 
1 1 1 1 1 1 1 1 1 
1 1 1 1 1 1 1 1 1 
1 1 1 1 1 1 1 1 1 
1 1 1 1 1 1 1 1 1 
1 1 1 1 1 1 1 1 1 
1 1 1 1 1 1 1 1 1 
1 1 1 1 1 1 1 1 1 
1 1 1 1 1 1 1 1 1 
1 1 1 1 1 1 1 1 1 
1 1 1 1 1 1 1 1 1 
1 1 1 1 1 1 1 1 1 
1 1 1 1 1 1 1 1 1 
1 1 1 1 1 1 1 1 1 
1 1 1 1 1 1 1 1 1 
1 1 1 1 1 1 1 1 1 
1 1 1 1 1 1 1 1 1 
1 1 1 1 1 1 1 1 1 
1 1 1 1 1 1 1 1 1 
1 1 1 1 1 1 1 1 1 
1 1 1 1 1 1 1 1 1 
1 1 1 1 1 1 1 1 1 
1 1 1 1 1 1 1 1 1 
1 1 1 1 1 1 1 1 1 
1 1 1 1 1 1 1 1 1 
1 1 1 1 1 1 1 1 1 
1 1 1 1 1 1 1 1 1 
1 1 1 1 1 1 1 1 1 
1 1 1 1 1 1 1 1 1 
1 1 1 1 1 1 1 1 1 
1 1 1 1 1 1 1 1 1 
1 1 1 1 1 1 1 1 1 
1 1 1 1 1 1 1 1 1 
1 1 1 1 1 1 1 1 1 
1 1 1 1 1 1 1 1 1 
1 1 1 1 1 1 1 1 1 
1 1 1 1 1 1 1 1 1 
1 1 1 1 1 1 1 1 1 
1 1 1 1 1 1 1 1 1 
1 1 1 1 1 1 1 1 1 
1 1 1 1 1 1 1 1 1 
1 1 1 1 1 1 1 1 1 
1 1 1 1 1 1 1 1 1 
1 1 1 1 1 1 1 1 1 
1 1 1 1 1 1 1 1 1 
1 1 1 1 1 1 1 1 1 
1 1 1 1 1 1 1 1 1 
1 1 1 1 1 1 1 1 1 
1 1 1 1 1 1 1 1 1 
1 1 1 1 1 1 1 1 1 
1 1 1 1 1 1 1 1 1 
1 1 1 1 1 1 1 1 1 
1 1 1 1 1 1 1 1 1 
1 1 1 1 1 1 1 1 1 
1 1 1 1 1 1 1 1 1 
1 1 1 1 1 1 1 1 1 
1 1 1 1 1 1 1 1 1 
1 1 1 1 1 1 1 1 1 
1 1 1 1 1 1 1 1 1 
1 1 1 1 1 1 1 1 1 
1 1 
NORMALS normals float
-0.00990002 -0.00990002 -0.999902 -0.00700089 -0.707089 -0.707089 -0.57735 -0.57735 -0.57735 
0 -0.0099005 -0.999951 0 -0.707107 -0.707107 0 -0.0099005 -0.999951 
0 -0.707107 -0.707107 0 -0.0099005 -0.999951 0 -0.707107 -0.707107 
0 -0.0099005 -0.999951 0 -0.707107 -0.707107 0 -0.0099005 -0.999951 
0 -0.707107 -0.707107 0 -0.0099005 -0.999951 0 -0.707107 -0.707107 
0.0099995 0 -0.99995 0.0099995 -0.99995 0 1 0 0 
-0.00990002 -0.00990002 -0.999902 -0.57735 -0.57735 -0.57735 -0.57735 -0.57735 -0.57735 
0 0 -1 0 0 -1 0 0 -1 
0 0 -1 0 0 -1 0 0 -1 
0.009999 0.009999 -0.9999 0.707107 0.707107 0 0.710616 0.70358 0 
-0.00990002 -0.00990002 -0.999902 -0.00700089 -0.707089 -0.707089 -0.57735 -0.57735 -0.57735 
0 -0.0099005 -0.999951 0 -0.707107 -0.707107 0 -0.0099005 -0.999951 
-0.57352 -0.579256 -0.579256 0 0 -1 0 0 -1 
0 0 -1 0 0 -1 0 0 -1 
0 0 -1 0.009999 0.009999 -0.9999 0.707107 0.707107 0 
0.707107 0.707107 0 -0.00990002 -0.00990002 -0.999902 -0.57735 -0.57735 -0.57735 
-0.57735 -0.57735 -0.57735 0 0 -1 0 0 -1 
0 0 -1 0 0 -1 0 0 -1 
0 0 -1 0 0.0099005 -0.999951 0 0.0099995 -0.99995 
0.009999 0.009999 -0.9999 0.707107 0.707107 0 0.707107 0.707107 0 
-0.00990002 -0.00990002 -0.999902 -0.57735 -0.57735 -0.57735 -0.57735 -0.57735 -0.57735 
0 0 -1 0 0 -1 0 0 -1 
0 0 -1 0 0 -1 0 0 -1 
0.00990002 0.00990002 -0.999902 0.707089 0.707089 -0.00700089 0.703563 0.710598 -0.00703563 
0 1 0 0.0099005 0.999951 0 -0.00990002 -0.00990002 -0.999902 
-0.57735 -0.57735 -0.57735 -0.57735 -0.57735 -0.57735 0 0 -1 
0 0 -1 0 0 -1 0 0 -1 
0 0.0099005 -0.999951 0 0.0099005 -0.999951 0.00990002 0.00990002 -0.999902 
0.707089 0.707089 -0.00700089 0.707089 0.707089 -0.00700089 -0.00990002 -0.00990002 -0.999902 
-0.57735 -0.57735 -0.57735 -0.707089 -0.00700089 -0.707089 0 0 -1 
0 0 -1 0 0 -1 0 0 -1 
0.0099005 0 -0.999951 0.710598 0.703563 -0.00703563 0.703563 0.710598 -0.00703563 
0 0.999951 -0.0099005 0.00990002 0.999902 -0.00990002 -0.0099005 0 -0.999951 
-0.707107 0 -0.707107 0 0 -1 0 0 -1 
0 0 -1 0 0 -1 0.0099005 0 -0.999951 
0.999951 0 -0.0099005 -0.0099005 0 -0.999951 -0.707107 0 -0.707107 
0 0 -1 0 0 -1 0 0 -1 
0 0 -1 0.00990002 0.00990002 -0.999902 0.999902 0.00990002 -0.00990002 
-0.0099005 0 -0.999951 -0.707107 0 -0.707107 0 0 -1 
0 0 -1 0 0 -1 0.00990002 0.00990002 -0.999902 
0.707089 0.707089 -0.00700089 0.707089 0.707089 -0.00700089 -0.0099005 0 -0.999951 
-0.707107 0 -0.707107 0 0 -1 0 0 -1 
0.00990002 0.00990002 -0.999902 0.707089 0.707089 -0.00700089 0.707089 0.707089 -0.00700089 
-0.0099005 0 -0.999951 -0.707107 0 -0.707107 0 0 -1 
0.00990002 0.00990002 -0.999902 0.707089 0.707089 -0.00700089 0.707089 0.707089 -0.00700089 
-0.0099005 0 -0.999951 -0.707107 0 -0.707107 0.0099005 0 -0.999951 
0.710598 0.703563 -0.00703563 0.707089 0.707089 -0.00700089 -0.0099005 0 -0.999951 
-0.707107 0 -0.707107 0.0099005 0 -0.999951 0.999951 0 -0.0099005 
-0.0099005 0 -0.999951 -0.707107 0 -0.707107 0.00990002 0.00990002 -0.999902 
0.999902 0.00990002 -0.00990002 0 0.0099005 -0.999951 -0.703563 0.00703563 -0.710598 
0.703563 0.710598 -0.00703563 0.707089 0.707089 -0.00700089 0 0.999951 -0.0099005 
-0.00990002 -0.00990002 -0.999902 -0.00700089 -0.707089 -0.707089 -0.707089 -0.00700089 -0.707089 
0 -0.707107 -0.707107 0 -0.707107 -0.707107 0 -0.707107 -0.707107 
0 -0.707107 -0.707107 0 -0.707107 -0.707107 0 -0.707107 -0.707107 
0 -0.707107 -0.707107 0 -0.707107 -0.707107 0 -0.707107 -0.707107 
0 -0.707107 -0.707107 0 -0.707107 -0.707107 0 -0.707107 -0.707107 
0.00700089 -0.707089 -0.707089 0.00700089 -0.707089 -0.707089 0.999902 -0.00990002 -0.00990002 
-0.579256 -0.57352 -0.579256 -0.579256 -0.57352 -0.579256 0.707089 0.00700089 0.707089 
0.710616 0 0.70358 -0.00700089 -0.707089 -0.707089 -0.00700089 -0.707089 -0.707089 
-0.57735 -0.57735 -0.57735 0 -0.707107 -0.707107 0 -0.707107 -0.707107 
-0.57352 -0.579256 -0.579256 -0.57352 -0.579256 -0.579256 0.579256 0.579256 0.57352 
0.57735 0.57735 0.57735 0.57735 0.57735 0.57735 -0.57735 -0.57735 -0.57735 
-0.57735 -0.57735 -0.57735 -0.57735 -0.57735 -0.57735 0.579256 0.579256 0.57352 
0.57735 0.57735 0.57735 0.57735 0.57735 0.57735 -0.57735 -0.57735 -0.57735 
-0.57735 -0.57735 -0.57735 -0.57735 -0.57735 -0.57735 0.575426 0.58118 0.575426 
0.579256 0.579256 0.57352 0.575426 0.58118 0.575426 0.00700089 0.707089 0.707089 
0.00703563 0.710598 0.703563 -0.57735 -0.57735 -0.57735 -0.57735 -0.57735 -0.57735 
-0.57735 -0.57735 -0.57735 0.707107 0.707107 0 0.707107 0.707107 0 
-0.57735 -0.57735 -0.57735 -0.57735 -0.57735 -0.57735 -0.57735 -0.57735 -0.57735 
0.707107 0.707107 0 0.707107 0.707107 0 -0.707089 -0.00700089 -0.707089 
-0.57735 -0.57735 -0.57735 -0.707089 -0.00700089 -0.707089 0.58118 0.575426 -0.575426 
0.575426 0.58118 -0.575426 0 0.710616 -0.70358 0.0099005 0.999951 0 
-0.707107 0 -0.707107 -0.707107 0 -0.707107 0.710616 0 -0.70358 
-0.707107 0 -0.707107 -0.707107 0 -0.707107 0.999951 0.0099005 0 
-0.707107 0 -0.707107 -0.707107 0 -0.707107 0.707107 0.707107 0 
0.707107 0.707107 0 -0.707107 0 -0.707107 -0.707107 0 -0.707107 
0.707107 0.707107 0 0.707107 0.707107 0 -0.707107 0 -0.707107 
-0.707107 0 -0.707107 0.579256 0.579256 -0.57352 0.579256 0.579256 -0.57352 
-0.707107 0 -0.707107 -0.707107 0 -0.707107 0.58118 0.575426 -0.575426 
0.579256 0.579256 -0.57352 -0.707107 0 -0.707107 -0.707107 0 -0.707107 
0.710616 0 -0.70358 -0.707107 0 -0.707107 -0.707107 0 -0.707107 
0.999951 0.0099005 0 -0.707089 0.00700089 -0.707089 -0.707089 0.00700089 -0.707089 
0.707107 0.707107 0 0.707107 0.707107 0 -0.00700089 0.707089 -0.707089 
0.0099005 0.999951 0 -0.00990002 -0.00990002 -0.999902 -0.00990002 -0.999902 -0.00990002 
-0.707089 -0.707089 -0.00700089 0 -0.0099005 -0.999951 0 -0.999951 -0.0099005 
0 -0.0099005 -0.999951 0 -0.999951 -0.0099005 0 -0.0099005 -0.999951 
0 -0.999951 -0.0099005 0 -0.0099005 -0.999951 0 -0.999951 -0.0099005 
0.00990002 -0.00990002 -0.999902 0.00990002 -0.999902 -0.00990002 0.999902 -0.00990002 -0.00990002 
-0.00990002 -0.00990002 -0.999902 -0.707089 -0.707089 -0.00700089 -0.57735 -0.57735 -0.57735 
0 0 -1 0 0 -1 0 0 -1 
0 0 -1 0 0 -1 0.0099005 0 -0.999951 
0.579256 -0.57352 -0.579256 -0.00990002 -0.00990002 -0.999902 -0.00990002 -0.999902 -0.00990002 
-0.707089 -0.707089 -0.00700089 0 -0.0099005 -0.999951 0 -0.999951 -0.0099005 
0 -0.0099005 -0.999951 -0.57352 -0.579256 -0.579256 0 0 -1 
0 0 -1 0 0 -1 0 0 -1 
0 0 -1 0 0 -1 0 0 -1 
0.57352 -0.579256 -0.579256 0 -0.0099005 -0.999951 0.0099005 0 -0.999951 
0.00703563 -0.703563 -0.710598 0.999951 0 -0.0099005 -0.00990002 -0.00990002 -0.999902 
-0.707089 -0.707089 -0.00700089 -0.707089 -0.707089 -0.00700089 0 0 -1 
0 0 -1 0 0 -1 0 0 -1 
0 0 -1 0 0 -1 0 0 -1 
0 0 -1 0 0.0099005 -0.999951 0 0.0099005 -0.999951 
0.00990002 0.00990002 -0.999902 0.707089 0.707089 -0.00700089 0.710598 0.703563 -0.00703563 
-0.00990002 -0.00990002 -0.999902 -0.707089 -0.707089 -0.00700089 -0.707089 -0.707089 -0.00700089 
0 -0.70358 -0.710616 0 -0.70358 -0.710616 0 -0.70358 -0.710616 
0 -0.70358 -0.710616 0 -0.70358 -0.710616 0 -0.70358 -0.710616 
0 -0.70358 -0.710616 0 -0.70358 -0.710616 0.00990002 0.00990002 -0.999902 
0.707089 0.707089 -0.00700089 0.703563 0.710598 -0.00703563 0 0.999951 -0.0099005 
0.00990002 0.999902 -0.00990002 -0.00990002 -0.00990002 -0.999902 -0.707089 -0.707089 -0.00700089 
-0.707089 -0.707089 -0.00700089 -0.70358 0 -0.710616 0.707089 0.707089 -0.00700089 
0.707107 0.707107 0 -0.00700089 -0.707089 -0.707089 -0.707089 -0.707089 -0.00700089 
-0.707089 -0.707089 -0.00700089 0 -0.70358 -0.710616 -0.575426 -0.575426 -0.58118 
0.57735 0.57735 0.57735 0.579256 0.579256 0.57352 0.579256 0.579256 0.57352 
-0.57735 -0.57735 -0.57735 -0.707089 -0.707089 -0.00700089 -0.707089 -0.707089 -0.00700089 
0.57735 0.57735 0.57735 0.579256 0.579256 0.57352 0.579256 0.579256 0.57352 
-0.57735 -0.57735 -0.57735 -0.707089 -0.707089 -0.00700089 -0.707089 -0.707089 -0.00700089 
0.57735 0.57735 0.57735 0.579256 0.579256 0.57352 0.579256 0.579256 0.57352 
-0.579256 -0.579256 -0.57352 -0.707107 -0.707107 0 -0.707107 -0.707107 0 
0.707107 0.707107 0 0.707107 0.707107 0 -0.57735 -0.57735 -0.57735 
-0.707089 -0.707089 -0.00700089 -0.707089 -0.707089 -0.00700089 0.707107 0.707107 0 
0.707107 0.707107 0 -0.579256 -0.579256 -0.57352 -0.707107 -0.707107 0 
-0.707107 -0.707107 0 0.707107 0.707107 0 0.707107 0.707107 0 
-0.707089 -0.00700089 -0.707089 -0.707089 -0.707089 -0.00700089 -0.999902 -0.00990002 -0.00990002 
0.575426 0.575426 -0.58118 0.00700089 0.707089 -0.707089 0.707089 0.707089 -0.00700089 
0.707107 0.707107 0 -0.707107 0 -0.707107 -0.999951 0 -0.0099005 
0.707089 0.00700089 -0.707089 0.707089 0.707089 -0.00700089 0.707089 0.707089 -0.00700089 
-0.707107 0 -0.707107 -0.710598 -0.703563 -0.00703563 0.707107 0.707107 0 
0.707089 0.707089 -0.00700089 -0.00990002 -0.00990002 -0.999902 -0.707089 -0.707089 -0.00700089 
-0.707089 -0.707089 -0.00700089 -0.70358 0 -0.710616 0.579256 0.579256 -0.57352 
0.579256 0.579256 -0.57352 -0.00990002 -0.00990002 -0.999902 -0.707089 -0.707089 -0.00700089 
-0.999902 -0.00990002 -0.00990002 0 0 -1 -0.70358 0 -0.710616 
0.710616 0.70358 0 0.707107 0.707107 0 -0.0099005 0 -0.999951 
-0.999951 0 -0.0099005 0 0 -1 -0.70358 0 -0.710616 
0.579256 0.57352 -0.579256 0.999951 0 -0.0099005 -0.0099005 0 -0.999951 
-0.710598 -0.703563 -0.00703563 0 0 -1 -0.70358 0 -0.710616 
0.575426 0.575426 -0.58118 0.00990002 0.00990002 -0.999902 0.999902 0.00990002 -0.00990002 
-0.00990002 -0.00990002 -0.999902 -0.707089 -0.707089 -0.00700089 -0.707089 -0.707089 -0.00700089 
0 0 -1 0 0 -1 -0.70358 0 -0.710616 
0.707089 0.00700089 -0.707089 0.707089 0.707089 -0.00700089 0.707089 0.707089 -0.00700089 
-0.00990002 -0.00990002 -0.999902 -0.707089 -0.707089 -0.00700089 -0.999902 -0.00990002 -0.00990002 
0 0 -1 0 0 -1 0 0 -1 