# vtk DataFile Version 3.0
vtk output
ASCII
DATASET POLYDATA
POINTS 3036 float
87 192 55.04 87 191.04 56 86.04 192 56 
88 192 55.04 88 191.04 56 89 192 55.04 
89 191.04 56 90 192 55.04 90 191.04 56 
90.96 192 56 87 193 55.04 86.04 193 56 
88 193 55.04 89 193 55.04 89.96 193 56 
90 192.96 56 87 193.96 56 88 193.96 56 
89 193.96 56 79 181 56.04 79 180.04 57 
78.04 181 57 80 181 56.04 80 180.04 57 
80.96 181 57 79 181.96 57 79.04 182 57 
80 182 56.04 80.96 182 57 80 183 56.04 
79.04 183 57 80.96 183 57 80 184 56.04 
79.04 184 57 80.96 184 57 80 185 56.04 
79.04 185 57 80.96 185 57 80 186 56.04 
79.04 186 57 80.96 186 57 80 187 56.04 
79.04 187 57 81 186.04 57 81 187 56.04 
82 187 56.04 82 186.04 57 82.96 187 57 
80 187.96 57 81 187.96 57 81.04 188 57 
82 188 56.04 82.96 188 57 82 189 56.04 
81.04 189 57 82.96 189 57 82 190 56.04 
81.04 190 57 82.96 190 57 82 191 56.04 
81.04 191 57 83 190.04 57 83 191 56.04 
84 191 56.04 84 190.04 57 84.96 191 57 
86 191 56.04 86 190.04 57 85.04 191 57 
87 191 56.04 87 190.04 57 88 191 56.04 
88 190.04 57 89 191 56.04 89 190.04 57 
90 191 56.04 90 190.04 57 90.96 191 57 
82 191.96 57 83 191.96 57 83.04 192 57 
84 192 56.04 84.96 192 57 86 192 56.04 
85.04 192 57 90.96 192 57 84 193 56.04 
83.04 193 57 85 192.04 57 85 193 56.04 
86 193 56.04 89.96 193 57 90 192.96 57 
84 193.96 57 85 193.96 57 86 193.96 57 
87 193.96 57 88 193.96 57 89 193.96 57 
83 148 57.04 83 147.04 58 82.04 148 58 
84 148 57.04 84 147.04 58 85 148 57.04 
85 147.04 58 86 148 57.04 86 147.04 58 
86.96 148 58 83 149 57.04 82.04 149 58 
84 149 57.04 85 149 57.04 86 149 57.04 
86.96 149 58 83 150 57.04 82.04 150 58 
84 150 57.04 85 150 57.04 86 150 57.04 
87 149.04 58 87 150 57.04 88 150 57.04 
88 149.04 58 89 150 57.04 89 149.04 58 
90 150 57.04 90 149.04 58 90.96 150 58 
82 151 57.04 82 150.04 58 81.04 151 58 
83 151 57.04 84 151 57.04 85 151 57.04 
86 151 57.04 87 151 57.04 88 151 57.04 
89 151 57.04 90 151 57.04 90.96 151 58 
81 152 57.04 81 151.04 58 80.04 152 58 
82 152 57.04 83 152 57.04 84 152 57.04 
85 152 57.04 86 152 57.04 87 152 57.04 
88 152 57.04 89 152 57.04 90 152 57.04 
90.96 152 58 81 153 57.04 80.04 153 58 
82 153 57.04 83 153 57.04 84 153 57.04 
85 153 57.04 86 153 57.04 87 153 57.04 
88 153 57.04 89 153 57.04 90 153 57.04 
90.96 153 58 81 154 57.04 80.04 154 58 
82 154 57.04 83 154 57.04 84 154 57.04 
85 154 57.04 86 154 57.04 87 154 57.04 
88 154 57.04 89 154 57.04 90 154 57.04 
90.96 154 58 81 155 57.04 80.04 155 58 
82 155 57.04 83 155 57.04 84 155 57.04 
85 155 57.04 86 155 57.04 87 155 57.04 
88 155 57.04 89 155 57.04 90 155 57.04 
90.96 155 58 81 156 57.04 80.04 156 58 
82 156 57.04 83 156 57.04 84 156 57.04 
85 156 57.04 86 156 57.04 87 156 57.04 
88 156 57.04 89 156 57.04 90 156 57.04 
91 155.04 58 91 156 57.04 92 156 57.04 
92 155.04 58 92.96 156 58 81 157 57.04 
80.04 157 58 82 157 57.04 83 157 57.04 
84 157 57.04 85 157 57.04 86 157 57.04 
87 157 57.04 88 157 57.04 89 157 57.04 
90 157 57.04 91 157 57.04 92 157 57.04 
92.96 157 58 81 158 57.04 80.04 158 58 
82 158 57.04 83 158 57.04 84 158 57.04 
85 158 57.04 86 158 57.04 87 158 57.04 
88 158 57.04 89 158 57.04 90 158 57.04 
91 158 57.04 92 158 57.04 92.96 158 58 
80 159 57.04 80 158.04 58 79.04 159 58 
81 159 57.04 82 159 57.04 83 159 57.04 
84 159 57.04 85 159 57.04 86 159 57.04 
87 159 57.04 88 159 57.04 89 159 57.04 
90 159 57.04 91 159 57.04 92 159 57.04 
92.96 159 58 79 160 57.04 79 159.04 58 
78.04 160 58 80 160 57.04 81 160 57.04 
82 160 57.04 83 160 57.04 84 160 57.04 
85 160 57.04 86 160 57.04 87 160 57.04 
88 160 57.04 89 160 57.04 90 160 57.04 
91 160 57.04 92 160 57.04 92.96 160 58 
78 161 57.04 78 160.04 58 77.04 161 58 
79 161 57.04 80 161 57.04 81 161 57.04 
82 161 57.04 83 161 57.04 84 161 57.04 
85 161 57.04 86 161 57.04 87 161 57.04 
88 161 57.04 89 161 57.04 90 161 57.04 
91 161 57.04 91.96 161 58 92 160.96 58 
78 161.96 58 78.04 162 58 79 162 57.04 
80 162 57.04 81 162 57.04 82 162 57.04 
83 162 57.04 84 162 57.04 85 162 57.04 
86 162 57.04 87 162 57.04 88 162 57.04 
89 162 57.04 90 162 57.04 90.96 162 58 
91 161.96 58 79 163 57.04 78.04 163 58 
80 163 57.04 81 163 57.04 82 163 57.04 
83 163 57.04 84 163 57.04 85 163 57.04 
86 163 57.04 87 163 57.04 88 163 57.04 
89 163 57.04 90 163 57.04 90.96 163 58 
79 164 57.04 78.04 164 58 80 164 57.04 
81 164 57.04 82 164 57.04 83 164 57.04 
84 164 57.04 85 164 57.04 86 164 57.04 
87 164 57.04 88 164 57.04 89 164 57.04 
90 164 57.04 90.96 164 58 79 165 57.04 
78.04 165 58 80 165 57.04 81 165 57.04 
82 165 57.04 83 165 57.04 84 165 57.04 
85 165 57.04 86 165 57.04 87 165 57.04 
88 165 57.04 89 165 57.04 90 165 57.04 
90.96 165 58 79 166 57.04 78.04 166 58 
80 166 57.04 81 166 57.04 82 166 57.04 
83 166 57.04 84 166 57.04 85 166 57.04 
86 166 57.04 87 166 57.04 88 166 57.04 
89 166 57.04 90 166 57.04 90.96 166 58 
79 167 57.04 78.04 167 58 80 167 57.04 
81 167 57.04 82 167 57.04 83 167 57.04 
84 167 57.04 85 167 57.04 86 167 57.04 
87 167 57.04 88 167 57.04 89 167 57.04 
90 167 57.04 90.96 167 58 79 168 57.04 
78.04 168 58 80 168 57.04 81 168 57.04 
82 168 57.04 83 168 57.04 84 168 57.04 
85 168 57.04 86 168 57.04 87 168 57.04 
88 168 57.04 89 168 57.04 90 168 57.04 
90.96 168 58 79 169 57.04 78.04 169 58 
80 169 57.04 81 169 57.04 82 169 57.04 
83 169 57.04 84 169 57.04 85 169 57.04 
86 169 57.04 87 169 57.04 88 169 57.04 
89 169 57.04 90 169 57.04 90.96 169 58 
79 170 57.04 78.04 170 58 80 170 57.04 
81 170 57.04 82 170 57.04 83 170 57.04 
84 170 57.04 85 170 57.04 86 170 57.04 
87 170 57.04 88 170 57.04 89 170 57.04 
90 170 57.04 90.96 170 58 79 171 57.04 
78.04 171 58 80 171 57.04 81 171 57.04 
82 171 57.04 83 171 57.04 84 171 57.04 
85 171 57.04 86 171 57.04 87 171 57.04 
88 171 57.04 89 171 57.04 90 171 57.04 
90.96 171 58 79 172 57.04 78.04 172 58 
80 172 57.04 81 172 57.04 82 172 57.04 
83 172 57.04 84 172 57.04 85 172 57.04 
86 172 57.04 87 172 57.04 88 172 57.04 
89 172 57.04 90 172 57.04 90.96 172 58 
79 173 57.04 78.04 173 58 80 173 57.04 
81 173 57.04 82 173 57.04 83 173 57.04 
84 173 57.04 85 173 57.04 86 173 57.04 
87 173 57.04 88 173 57.04 89 173 57.04 
90 173 57.04 90.96 173 58 79 174 57.04 
78.04 174 58 80 174 57.04 81 174 57.04 
82 174 57.04 83 174 57.04 84 174 57.04 
85 174 57.04 86 174 57.04 87 174 57.04 
88 174 57.04 89 174 57.04 90 174 57.04 
90.96 174 58 78 175 57.04 78 174.04 58 
77.04 175 58 79 175 57.04 80 175 57.04 
81 175 57.04 82 175 57.04 83 175 57.04 
84 175 57.04 85 175 57.04 86 175 57.04 
87 175 57.04 88 175 57.04 89 175 57.04 
90 175 57.04 90.96 175 58 78 175.96 58 
78.04 176 58 79 176 57.04 80 176 57.04 
81 176 57.04 82 176 57.04 83 176 57.04 
84 176 57.04 85 176 57.04 86 176 57.04 
87 176 57.04 88 176 57.04 89 176 57.04 
90 176 57.04 90.96 176 58 79 177 57.04 
78.04 177 58 80 177 57.04 81 177 57.04 
82 177 57.04 83 177 57.04 84 177 57.04 
85 177 57.04 86 177 57.04 87 177 57.04 
88 177 57.04 89 177 57.04 90 177 57.04 
90.96 177 58 79 178 57.04 78.04 178 58 
80 178 57.04 81 178 57.04 82 178 57.04 
83 178 57.04 84 178 57.04 85 178 57.04 
86 178 57.04 87 178 57.04 88 178 57.04 
89 178 57.04 90 178 57.04 90.96 178 58 
79 179 57.04 78.04 179 58 80 179 57.04 
81 179 57.04 82 179 57.04 83 179 57.04 
84 179 57.04 85 179 57.04 86 179 57.04 
87 179 57.04 88 179 57.04 89 179 57.04 
90 179 57.04 90.96 179 58 79 180 57.04 
78.04 180 58 80 180 57.04 81 180 57.04 
82 180 57.04 83 180 57.04 84 180 57.04 
85 180 57.04 86 180 57.04 87 180 57.04 
88 180 57.04 89 180 57.04 90 180 57.04 
90.96 180 58 78.04 181 58 81 181 57.04 
82 181 57.04 83 181 57.04 84 181 57.04 
85 181 57.04 86 181 57.04 87 181 57.04 
88 181 57.04 89 181 57.04 90 181 57.04 
90.96 181 58 79 182 57.04 78.04 182 58 
81 182 57.04 82 182 57.04 83 182 57.04 
84 182 57.04 85 182 57.04 86 182 57.04 
87 182 57.04 88 182 57.04 89 182 57.04 
90 182 57.04 90.96 182 58 79 183 57.04 
78.04 183 58 81 183 57.04 82 183 57.04 
83 183 57.04 84 183 57.04 85 183 57.04 
86 183 57.04 87 183 57.04 88 183 57.04 
89 183 57.04 90 183 57.04 90.96 183 58 
79 184 57.04 78.04 184 58 81 184 57.04 
82 184 57.04 83 184 57.04 84 184 57.04 
85 184 57.04 86 184 57.04 87 184 57.04 
88 184 57.04 89 184 57.04 90 184 57.04 
90.96 184 58 79 185 57.04 78.04 185 58 
81 185 57.04 82 185 57.04 83 185 57.04 
84 185 57.04 85 185 57.04 86 185 57.04 
87 185 57.04 88 185 57.04 89 185 57.04 
90 185 57.04 90.96 185 58 79 186 57.04 
78.04 186 58 81 186 57.04 82 186 57.04 
83 186 57.04 84 186 57.04 85 186 57.04 
86 186 57.04 87 186 57.04 88 186 57.04 
89 186 57.04 90 186 57.04 90.96 186 58 
79 187 57.04 78.04 187 58 83 187 57.04 
84 187 57.04 85 187 57.04 86 187 57.04 
87 187 57.04 88 187 57.04 89 187 57.04 
90 187 57.04 90.96 187 58 79 188 57.04 
78.04 188 58 80 188 57.04 81 188 57.04 
83 188 57.04 84 188 57.04 85 188 57.04 
86 188 57.04 87 188 57.04 88 188 57.04 
89 188 57.04 90 188 57.04 90.96 188 58 
79 189 57.04 78.04 189 58 80 189 57.04 
81 189 57.04 83 189 57.04 84 189 57.04 
85 189 57.04 86 189 57.04 87 189 57.04 
88 189 57.04 89 189 57.04 90 189 57.04 
90.96 189 58 79 189.96 58 80 189.96 58 
80.04 190 58 81 190 57.04 83 190 57.04 
84 190 57.04 85 190 57.04 86 190 57.04 
87 190 57.04 88 190 57.04 89 190 57.04 
90 190 57.04 90.96 190 58 81 191 57.04 
80.04 191 58 85 191 57.04 90.96 191 58 
81 192 57.04 80.04 192 58 82 192 57.04 
83 192 57.04 85 192 57.04 90.96 192 58 
81 193 57.04 80.04 193 58 82 193 57.04 
83 193 57.04 89.96 193 58 90 192.96 58 
81 193.96 58 82 193.96 58 83 193.96 58 
84 193.96 58 85 194 57.04 84.04 194 58 
86 194 57.04 87 194 57.04 88 194 57.04 
88.96 194 58 89 193.96 58 85 195 57.04 
84.04 195 58 86 195 57.04 87 195 57.04 
87.96 195 58 88 194.96 58 85 195.96 58 
86 195.96 58 87 195.96 58 83 147.04 59 
82.04 148 59 84 147.04 59 85 147.04 59 
86 148 58.96 85.96 148 59 82.04 149 59 
86 149 58.96 85.96 149 59 82.04 150 59 
86 149.04 59 87 149.04 59 88 149.04 59 
89 149.04 59 90 150 58.96 89.96 150 59 
81 151 58.04 81 150.04 59 80.04 151 59 
82 150.04 59 90 151 58.96 89.96 151 59 
80.04 152 59 90 152 58.96 89.96 152 59 
[...]
POINT_DATA 3036
SCALARS scalars float
LOOKUP_TABLE default
1 1 1 1 1 1 1 1 1 
1 1 1 1 1 1 1 1 1 
1 1 1 1 1 1 1 1 1 
1 1 1 1 1 1 1 1 1 
1 1 1 1 1 1 1 1 1 
1 1 1 1 1 1 1 1 1 
1 1 1 1 1 1 1 1 1 
1 1 1 1 1 1 1 1 1 
1 1 1 1 1 1 1 1 1 
1 1 1 1 1 1 1 1 1 
1 1 1 1 1 1 1 1 1 
1 1 1 1 1 1 1 1 1 
1 1 1 1 1 1 1 1 1 
1 1 1 1 1 1 1 1 1 
1 1 1 1 1 1 1 1 1 
1 1 1 1 1 1 1 1 1 
1 1 1 1 1 1 1 1 1 
1 1 1 1 1 1 1 1 1 
1 1 1 1 1 1 1 1 1 
1 1 1 1 1 1 1 1 1 
1 1 1 1 1 1 1 1 1 
1 1 1 1 1 1 1 1 1 
1 1 1 1 1 1 1 1 1 
1 1 1 1 1 1 1 1 1 
1 1 1 1 1 1 1 1 1 
1 1 1 1 1 1 1 1 1 
1 1 1 1 1 1 1 1 1 
1 1 1 1 1 1 1 1 1 
1 1 1 1 1 1 1 1 1 
1 1 1 1 1 1 1 1 1 
1 1 1 1 1 1 1 1 1 
1 1 1 1 1 1 1 1 1 
1 1 1 1 1 1 1 1 1 
1 1 1 1 1 1 1 1 1 
1 1 1 1 1 1 1 1 1 
1 1 1 1 1 1 1 1 1 
1 1 1 1 1 1 1 1 1 
1 1 1 1 1 1 1 1 1 
1 1 1 1 1 1 1 1 1 
1 1 1 1 1 1 1 1 1 
1 1 1 1 1 1 1 1 1 
1 1 1 1 1 1 1 1 1 
1 1 1 1 1 1 1 1 1 
1 1 1 1 1 1 1 1 1 
1 1 1 1 1 1 1 1 1 
1 1 1 1 1 1 1 1 1 
1 1 1 1 1 1 1 1 1 
1 1 1 1 1 1 1 1 1 
1 1 1 1 1 1 1 1 1 
1 1 1 1 1 1 1 1 1 
1 1 1 1 1 1 1 1 1 
1 1 1 1 1 1 1 1 1 
1 1 1 1 1 1 1 1 1 
1 1 1 1 1 1 1 1 1 
1 1 1 1 1 1 1 1 1 
1 1 1 1 1 1 1 1 1 
1 1 1 1 1 1 1 1 1 
1 1 1 1 1 1 1 1 1 
1 1 1 1 1 1 1 1 1 
1 1 1 1 1 1 1 1 1 
1 1 1 1 1 1 1 1 1 
1 1 1 1 1 1 1 1 1 
1 1 1 1 1 1 1 1 1 
1 1 1 1 1 1 1 1 1 
1 1 1 1 1 1 1 1 1 
1 1 1 1 1 1 1 1 1 
1 1 1 1 1 1 1 1 1 
1 1 1 1 1 1 1 1 1 
1 1 1 1 1 1 1 1 1 
1 1 1 1 1 1 1 1 1 
1 1 1 1 1 1 1 1 1 
1 1 1 1 1 1 1 1 1 
1 1 1 1 1 1 1 1 1 
1 1 1 1 1 1 1 1 1 
1 1 1 1 1 1 1 1 1 
1 1 1 1 1 1 1 1 1 
1 1 1 1 1 1 1 1 1 
1 1 1 1 1 1 1 1 1 
1 1 1 1 1 1 1 1 1 
1 1 1 1 1 1 1 1 1 
1 1 1 1 1 1 1 1 1 
1 1 1 1 1 1 1 1 1 
1 1 1 1 1 1 1 1 1 
1 1 1 1 1 1 1 1 1 
1 1 1 1 1 1 1 1 1 
1 1 1 1 1 1 1 1 1 
1 1 1 1 1 1 1 1 1 
1 1 1 1 1 1 1 1 1 
1 1 1 1 1 1 1 1 1 
1 1 1 1 1 1 1 1 1 
1 1 1 1 1 1 1 1 1 
1 1 1 1 1 1 1 1 1 
1 1 1 1 1 1 1 1 1 
1 1 1 1 1 1 1 1 1 
1 1 1 1 1 1 1 1 1 
1 1 1 1 1 1 1 1 1 
1 1 1 1 1 1 1 1 1 
1 1 1 1 1 1 1 1 1 
1 1 1 1 1 1 1 1 1 
1 1 1 1 1 1 1 1 1 
1 1 1 1 1 1 1 1 1 
1 1 1 1 1 1 1 1 1 
1 1 1 1 1 1 1 1 1 
1 1 1 1 1 1 1 1 1 
1 1 1 1 1 1 1 1 1 
1 1 1 1 1 1 1 1 1 
1 1 1 1 1 1 1 1 1 
1 1 1 1 1 1 1 1 1 
1 1 1 1 1 1 1 1 1 
1 1 1 1 1 1 1 1 1 
1 1 1 1 1 1 1 1 1 
1 1 1 1 1 1 1 1 1 
1 1 1 1 1 1 1 1 1 
1 1 1 1 1 1 1 1 1 
1 1 1 1 1 1 1 1 1 
1 1 1 1 1 1 1 1 1 
1 1 1 1 1 1 1 1 1 
1 1 1 1 1 1 1 1 1 
1 1 1 1 1 1 1 1 1 
1 1 1 1 1 1 1 1 1 
1 1 1 1 1 1 1 1 1 
1 1 1 1 1 1 1 1 1 
1 1 1 1 1 1 1 1 1 
1 1 1 1 1 1 1 1 1 
1 1 1 1 1 1 1 1 1 
1 1 1 1 1 1 1 1 1 
1 1 1 1 1 1 1 1 1 
1 1 1 1 1 1 1 1 1 
1 1 1 1 1 1 1 1 1 
1 1 1 1 1 1 1 1 1 
1 1 1 1 1 1 1 1 1 
1 1 1 1 1 1 1 1 1 
1 1 1 1 1 1 1 1 1 
1 1 1 1 1 1 1 1 1 
1 1 1 1 1 1 1 1 1 
1 1 1 1 1 1 1 1 1 
1 1 1 1 1 1 1 1 1 
1 1 1 1 1 1 1 1 1 
1 1 1 1 1 1 1 1 1 
1 1 1 1 1 1 1 1 1 
1 1 1 1 1 1 1 1 1 
1 1 1 1 1 1 1 1 1 
1 1 1 1 1 1 1 1 1 
1 1 1 1 1 1 1 1 1 
1 1 1 1 1 1 1 1 1 
1 1 1 1 1 1 1 1 1 
1 1 1 1 1 1 1 1 1 
1 1 1 1 1 1 1 1 1 
1 1 1 1 1 1 1 1 1 
1 1 1 1 1 1 1 1 1 
1 1 1 1 1 1 1 1 1 
1 1 1 1 1 1 1 1 1 
1 1 1 1 1 1 1 1 1 
1 1 1 1 1 1 1 1 1 
1 1 1 1 1 1 1 1 1 
1 1 1 1 1 1 1 1 1 
1 1 1 1 1 1 1 1 1 
1 1 1 1 1 1 1 1 1 
1 1 1 1 1 1 1 1 1 
1 1 1 1 1 1 1 1 1 
1 1 1 1 1 1 1 1 1 
1 1 1 1 1 1 1 1 1 
1 1 1 1 1 1 1 1 1 
1 1 1 1 1 1 1 1 1 
1 1 1 1 1 1 1 1 1 
1 1 1 1 1 1 1 1 1 
1 1 1 1 1 1 1 1 1 
1 1 1 1 1 1 1 1 1 
1 1 1 1 1 1 1 1 1 
1 1 1 1 1 1 1 1 1 
1 1 1 1 1 1 1 1 1 
1 1 1 1 1 1 1 1 1 
1 1 1 1 1 1 1 1 1 
1 1 1 1 1 1 1 1 1 
1 1 1 1 1 1 1 1 1 
1 1 1 1 1 1 1 1 1 
1 1 1 1 1 1 1 1 1 
1 1 1 1 1 1 1 1 1 
1 1 1 1 1 1 1 1 1 
1 1 1 1 1 1 1 1 1 
1 1 1 1 1 1 1 1 1 
1 1 1 1 1 1 1 1 1 
1 1 1 1 1 1 1 1 1 
1 1 1 1 1 1 1 1 1 
1 1 1 1 1 1 1 1 1 
1 1 1 1 1 1 1 1 1 
1 1 1 1 1 1 1 1 1 
1 1 1 1 1 1 1 1 1 
1 1 1 1 1 1 1 1 1 
1 1 1 1 1 1 1 1 1 
1 1 1 1 1 1 1 1 1 
1 1 1 1 1 1 1 1 1 
1 1 1 1 1 1 1 1 1 
1 1 1 1 1 1 1 1 1 
1 1 1 1 1 1 1 1 1 
1 1 1 1 1 1 1 1 1 
1 1 1 1 1 1 1 1 1 
1 1 1 1 1 1 1 1 1 
1 1 1 1 1 1 1 1 1 
1 1 1 1 1 1 1 1 1 
1 1 1 1 1 1 1 1 1 
1 1 1 1 1 1 1 1 1 
1 1 1 1 1 1 1 1 1 
1 1 1 1 1 1 1 1 1 
1 1 1 1 1 1 1 1 1 
1 1 1 1 1 1 1 1 1 
1 1 1 1 1 1 1 1 1 
1 1 1 1 1 1 1 1 1 
1 1 1 1 1 1 1 1 1 
1 1 1 1 1 1 1 1 1 
1 1 1 1 1 1 1 1 1 
1 1 1 1 1 1 1 1 1 
1 1 1 1 1 1 1 1 1 
1 1 1 1 1 1 1 1 1 
1 1 1 1 1 1 1 1 1 
1 1 1 1 1 1 1 1 1 
1 1 1 1 1 1 1 1 1 
1 1 1 1 1 1 1 1 1 
1 1 1 1 1 1 1 1 1 
1 1 1 1 1 1 1 1 1 
1 1 1 1 1 1 1 1 1 
1 1 1 1 1 1 1 1 1 
1 1 1 1 1 1 1 1 1 
1 1 1 1 1 1 1 1 1 
1 1 1 1 1 1 1 1 1 
1 1 1 1 1 1 1 1 1 
1 1 1 1 1 1 1 1 1 
1 1 1 1 1 1 1 1 1 
1 1 1 1 1 1 1 1 1 
1 1 1 1 1 1 1 1 1 
1 1 1 1 1 1 1 1 1 
1 1 1 1 1 1 1 1 1 
1 1 1 1 1 1 1 1 1 
1 1 1 1 1 1 1 1 1 
1 1 1 1 1 1 1 1 1 
1 1 1 1 1 1 1 1 1 
1 1 1 1 1 1 1 1 1 
1 1 1 1 1 1 1 1 1 
1 1 1 1 1 1 1 1 1 
1 1 1 1 1 1 1 1 1 
1 1 1 1 1 1 1 1 1 
1 1 1 1 1 1 1 1 1 
1 1 1 1 1 1 1 1 1 
1 1 1 1 1 1 1 1 1 
1 1 1 1 1 1 1 1 1 
1 1 1 1 1 1 1 1 1 
1 1 1 1 1 1 1 1 1 
1 1 1 1 1 1 1 1 1 
1 1 1 1 1 1 1 1 1 
1 1 1 1 1 1 1 1 1 
1 1 1 1 1 1 1 1 1 
1 1 1 1 1 1 1 1 1 
1 1 1 1 1 1 1 1 1 
1 1 1 1 1 1 1 1 1 
1 1 1 1 1 1 1 1 1 
1 1 1 1 1 1 1 1 1 
1 1 1 1 1 1 1 1 1 
1 1 1 1 1 1 1 1 1 
1 1 1 1 1 1 1 1 1 
1 1 1 1 1 1 1 1 1 
1 1 1 1 1 1 1 1 1 
1 1 1 1 1 1 1 1 1 
1 1 1 1 1 1 1 1 1 
1 1 1 1 1 1 1 1 1 
1 1 1 1 1 1 1 1 1 
1 1 1 1 1 1 1 1 1 
1 1 1 1 1 1 1 1 1 
1 1 1 1 1 1 1 1 1 
1 1 1 1 1 1 1 1 1 
1 1 1 1 1 1 1 1 1 
1 1 1 1 1 1 1 1 1 
1 1 1 1 1 1 1 1 1 
1 1 1 1 1 1 1 1 1 
1 1 1 1 1 1 1 1 1 
1 1 1 1 1 1 1 1 1 
1 1 1 1 1 1 1 1 1 
1 1 1 1 1 1 1 1 1 
1 1 1 1 1 1 1 1 1 
1 1 1 1 1 1 1 1 1 
1 1 1 1 1 1 1 1 1 
1 1 1 1 1 1 1 1 1 
1 1 1 1 1 1 1 1 1 
1 1 1 1 1 1 1 1 1 
1 1 1 1 1 1 1 1 1 
1 1 1 1 1 1 1 1 1 
1 1 1 1 1 1 1 1 1 
1 1 1 1 1 1 1 1 1 
1 1 1 1 1 1 1 1 1 
1 1 1 1 1 1 1 1 1 
1 1 1 1 1 1 1 1 1 
1 1 1 1 1 1 1 1 1 
1 1 1 1 1 1 1 1 1 
1 1 1 1 1 1 1 1 1 
1 1 1 1 1 1 1 1 1 
1 1 1 1 1 1 1 1 1 
1 1 1 1 1 1 1 1 1 
1 1 1 1 1 1 1 1 1 
1 1 1 1 1 1 1 1 1 
1 1 1 1 1 1 1 1 1 
1 1 1 1 1 1 1 1 1 
1 1 1 1 1 1 1 1 1 
1 1 1 1 1 1 1 1 1 
1 1 1 1 1 1 1 1 1 
1 1 1 1 1 1 1 1 1 
1 1 1 1 1 1 1 1 1 
1 1 1 1 1 1 1 1 1 
1 1 1 1 1 1 1 1 1 
1 1 1 1 1 1 1 1 1 
1 1 1 1 1 1 1 1 1 
1 1 1 1 1 1 1 1 1 
1 1 1 1 1 1 1 1 1 
1 1 1 1 1 1 1 1 1 
1 1 1 1 1 1 1 1 1 
1 1 1 1 1 1 1 1 1 
1 1 1 1 1 1 1 1 1 
1 1 1 1 1 1 1 1 1 
1 1 1 1 1 1 1 1 1 
1 1 1 1 1 1 1 1 1 
1 1 1 1 1 1 1 1 1 
1 1 1 1 1 1 1 1 1 
1 1 1 1 1 1 1 1 1 
1 1 1 1 1 1 1 1 1 
1 1 1 1 1 1 1 1 1 
1 1 1 1 1 1 1 1 1 
1 1 1 1 1 1 1 1 1 
1 1 1 1 1 1 1 1 1 
1 1 1 1 1 1 1 1 1 
1 1 1 1 1 1 1 1 1 
1 1 1 1 1 1 1 1 1 
1 1 1 1 1 1 1 1 1 
1 1 1 1 1 1 1 1 1 
1 1 1 1 1 1 1 1 1 
1 1 1 1 1 1 1 1 1 
1 1 1 1 1 1 1 1 1 
1 1 1 1 1 1 1 1 1 
1 1 1 1 1 1 1 1 1 
1 1 1 1 1 1 1 1 1 
1 1 1 
NORMALS normals float
-0.0399362 -0.0399362 -0.998404 -0.028273 -0.706824 -0.706824 -0.706824 -0.028273 -0.706824 
0 -0.039968 -0.999201 0 -0.707107 -0.707107 0 -0.039968 -0.999201 
0 -0.707107 -0.707107 0.039968 0 -0.999201 0.0288435 -0.692244 -0.721087 
0.999201 0 -0.039968 -0.0399362 0.0399362 -0.998404 -0.706824 0.028273 -0.706824 
0 0.039968 -0.999201 0.0399362 0.0399362 -0.998404 0.706824 0.706824 -0.028273 
0.721087 0.692244 -0.0288435 -0.0399362 0.998404 -0.0399362 0 0.999201 -0.039968 
0.0399362 0.998404 -0.0399362 -0.039968 0 -0.999201 -0.0288435 -0.692244 -0.721087 
-0.999201 0 -0.039968 0.0399362 -0.0399362 -0.998404 0.028273 -0.706824 -0.706824 
0.706824 -0.028273 -0.706824 -0.585045 0.561644 -0.585045 -0.569335 0.569335 -0.593057 
0 0 -1 0.692532 0 -0.721387 0 0 -1 
-0.692532 0 -0.721387 0.692532 0 -0.721387 0 0 -1 
-0.692532 0 -0.721387 0.692532 0 -0.721387 0 0 -1 
-0.692532 0 -0.721387 0.692532 0 -0.721387 0 0 -1 
-0.692532 0 -0.721387 0.569335 -0.569335 -0.593057 -0.0399362 0.0399362 -0.998404 
-0.706824 0.028273 -0.706824 0.569335 -0.569335 -0.593057 0 0 -1 
0.0399362 -0.0399362 -0.998404 0.028273 -0.706824 -0.706824 0.706824 -0.028273 -0.706824 
-0.028273 0.706824 -0.706824 -0.569335 0.569335 -0.593057 -0.569335 0.569335 -0.593057 
0 0 -1 0.692532 0 -0.721387 0 0 -1 
-0.692532 0 -0.721387 0.692532 0 -0.721387 0 0 -1 
-0.692532 0 -0.721387 0.569335 -0.569335 -0.593057 -0.0399362 0.0399362 -0.998404 
-0.706824 0.028273 -0.706824 0.569335 -0.569335 -0.593057 0 0 -1 
0.0399362 -0.0399362 -0.998404 0.028273 -0.706824 -0.706824 0.0399362 -0.0399362 -0.998404 
-0.0399362 -0.0399362 -0.998404 -0.028273 -0.706824 -0.706824 -0.0399362 -0.0399362 -0.998404 
0 -0.707107 -0.707107 0 -0.707107 -0.707107 0 -0.707107 -0.707107 
0 -0.707107 -0.707107 0 -0.707107 -0.707107 0 -0.707107 -0.707107 
0.028273 -0.706824 -0.706824 0.028273 -0.706824 -0.706824 0.998404 -0.0399362 -0.0399362 
-0.028273 0.706824 -0.706824 -0.569335 0.569335 -0.593057 -0.569335 0.569335 -0.593057 
0 0 -1 0 -0.692532 -0.721387 -0.707107 0 -0.707107 
-0.0288435 -0.692244 -0.721087 0.999201 0.039968 0 -0.0399362 0.0399362 -0.998404 
-0.706824 0.028273 -0.706824 0 -0.692532 -0.721387 0 0 -1 
-0.692244 0.0288435 -0.721087 0.707107 0.707107 0 0.707107 0.707107 0 
-0.0399362 0.998404 -0.0399362 0 0.692532 -0.721387 0 0.707107 -0.707107 
0 0.721387 -0.692532 0 0.721387 -0.692532 0.039968 0.999201 0 
-0.0399362 -0.0399362 -0.998404 -0.0399362 -0.998404 -0.0399362 -0.998404 -0.0399362 -0.0399362 
0 -0.039968 -0.999201 0 -0.999201 -0.039968 0 -0.039968 -0.999201 
0 -0.999201 -0.039968 0.0415945 -0.0415945 -0.998268 0.039968 -0.999201 0 
0.999201 -0.039968 0 -0.039968 0 -0.999201 -0.999201 0 -0.039968 
0 0 -1 0 0 -1 0.0416305 0 -0.999133 
0.721387 -0.692532 0 -0.039968 0 -0.999201 -0.721087 -0.692244 -0.0288435 
0 0 -1 0 0 -1 0 0 -1 
0.692244 -0.721087 -0.0288435 0 -0.039968 -0.999201 0 -0.039968 -0.999201 
0 -0.999201 -0.039968 0 -0.039968 -0.999201 0 -0.999201 -0.039968 
0.0415945 -0.0415945 -0.998268 0.039968 -0.999201 0 0.999201 -0.039968 0 
-0.0399362 -0.0399362 -0.998404 -0.706824 -0.706824 -0.028273 -0.57735 -0.57735 -0.57735 
0 0 -1 0 0 -1 0 0 -1 
0 0 -1 0 0 -1 0 0 -1 
0 0 -1 0.0416305 0 -0.999133 1 0 0 
-0.0399362 -0.0399362 -0.998404 -0.57735 -0.57735 -0.57735 -0.998404 -0.0399362 -0.0399362 
0 0 -1 0 0 -1 0 0 -1 
0 0 -1 0 0 -1 0 0 -1 
0 0 -1 0 0 -1 0.0416305 0 -0.999133 
1 0 0 -0.039968 0 -0.999201 -0.707107 0 -0.707107 
0 0 -1 0 0 -1 0 0 -1 
0 0 -1 0 0 -1 0 0 -1 
0 0 -1 0 0 -1 0.0416305 0 -0.999133 
1 0 0 -0.039968 0 -0.999201 -0.707107 0 -0.707107 
0 0 -1 0 0 -1 0 0 -1 
0 0 -1 0 0 -1 0 0 -1 
0 0 -1 0 0 -1 0.0416305 0 -0.999133 
1 0 0 -0.039968 0 -0.999201 -0.707107 0 -0.707107 
0 0 -1 0 0 -1 0 0 -1 
0 0 -1 0 0 -1 0 0 -1 
0 0 -1 0 0 -1 0.0416305 0 -0.999133 
0.721387 -0.692532 0 -0.039968 0 -0.999201 -0.707107 0 -0.707107 
0 0 -1 0 0 -1 0 0 -1 
0 0 -1 0 0 -1 0 0 -1 
0 0 -1 0 0 -1 0 0 -1 
0.692244 -0.721087 -0.0288435 0 -0.039968 -0.999201 0.0415945 -0.0415945 -0.998268 
0.039968 -0.999201 0 0.999201 -0.039968 0 -0.039968 0 -0.999201 
-0.707107 0 -0.707107 0 0 -1 0 0 -1 
0 0 -1 0 0 -1 0 0 -1 
0 0 -1 0 0 -1 0 0 -1 
0 0 -1 0 0 -1 0.0416305 0 -0.999133 
1 0 0 -0.039968 0 -0.999201 -0.585045 -0.561644 -0.585045 
0 0 -1 0 0 -1 0 0 -1 
0 0 -1 0 0 -1 0 0 -1 
0 0 -1 0 0 -1 0 0 -1 
0 0 -1 0.0416305 0 -0.999133 1 0 0 
-0.0399362 -0.0399362 -0.998404 -0.57735 -0.57735 -0.57735 -0.57735 -0.57735 -0.57735 
0 0 -1 0 0 -1 0 0 -1 
0 0 -1 0 0 -1 0 0 -1 
0 0 -1 0 0 -1 0 0 -1 
0 0 -1 0 0 -1 0.0416305 0 -0.999133 
1 0 0 -0.0399362 -0.0399362 -0.998404 -0.57735 -0.57735 -0.57735 
-0.57735 -0.57735 -0.57735 0 0 -1 0 0 -1 
0 0 -1 0 0 -1 0 0 -1 
0 0 -1 0 0 -1 0 0 -1 
0 0 -1 0 0 -1 0 0 -1 
0 0 -1 0.0415945 0.0415945 -0.998268 0.999201 0.039968 0 
-0.039968 0 -0.999201 -0.585045 -0.561644 -0.585045 -0.707107 0 -0.707107 
0 0 -1 0 0 -1 0 0 -1 
0 0 -1 0 0 -1 0 0 -1 
0 0 -1 0 0 -1 0 0 -1 
0 0 -1 0 0 -1 0 0 -1 
0.0415945 0.0415945 -0.998268 0.707107 0.707107 0 0.707107 0.707107 0 
-0.585045 0.561644 -0.585045 -0.585045 0.561644 -0.585045 -0.039968 0 -0.999201 
0 0 -1 0 0 -1 0 0 -1 
0 0 -1 0 0 -1 0 0 -1 
0 0 -1 0 0 -1 0 0 -1 
0 0 -1 0.039968 0 -0.999201 0.721087 0.692244 -0.0288435 
0.707107 0.707107 0 -0.039968 0 -0.999201 -0.707107 0 -0.707107 
0 0 -1 0 0 -1 0 0 -1 
0 0 -1 0 0 -1 0 0 -1 
0 0 -1 0 0 -1 0 0 -1 
0 0 -1 0.039968 0 -0.999201 0.999201 0 -0.039968 
-0.039968 0 -0.999201 -0.707107 0 -0.707107 0 0 -1 
0 0 -1 0 0 -1 0 0 -1 
0 0 -1 0 0 -1 0 0 -1 
0 0 -1 0 0 -1 0 0 -1 
0.039968 0 -0.999201 0.999201 0 -0.039968 -0.039968 0 -0.999201 
-0.707107 0 -0.707107 0 0 -1 0 0 -1 
0 0 -1 0 0 -1 0 0 -1 
0 0 -1 0 0 -1 0 0 -1 
0 0 -1 0 0 -1 0.039968 0 -0.999201 
0.999201 0 -0.039968 -0.039968 0 -0.999201 -0.999201 0 -0.039968 
0 0 -1 0 0 -1 0 0 -1 
0 0 -1 0 0 -1 0 0 -1 
0 0 -1 0 0 -1 0 0 -1 
0 0 -1 0.039968 0 -0.999201 0.999201 0 -0.039968 
-0.039968 0 -0.999201 -0.999201 0 -0.039968 0 0 -1 
0 0 -1 0 0 -1 0 0 -1 
0 0 -1 0 0 -1 0 0 -1 
0 0 -1 0 0 -1 0 0 -1 
0.039968 0 -0.999201 0.999201 0 -0.039968 -0.039968 0 -0.999201 
-0.999201 0 -0.039968 0 0 -1 0 0 -1 
0 0 -1 0 0 -1 0 0 -1 
0 0 -1 0 0 -1 0 0 -1 
0 0 -1 0 0 -1 0.039968 0 -0.999201 
0.999201 0 -0.039968 -0.039968 0 -0.999201 -0.999201 0 -0.039968 
0 0 -1 0 0 -1 0 0 -1 
0 0 -1 0 0 -1 0 0 -1 
0 0 -1 0 0 -1 0 0 -1 
0 0 -1 0.039968 0 -0.999201 0.999201 0 -0.039968 
-0.039968 0 -0.999201 -0.999201 0 -0.039968 0 0 -1 
0 0 -1 0 0 -1 0 0 -1 
0 0 -1 0 0 -1 0 0 -1 
0 0 -1 0 0 -1 0 0 -1 
0.039968 0 -0.999201 0.999201 0 -0.039968 -0.039968 0 -0.999201 
-0.999201 0 -0.039968 0 0 -1 0 0 -1 
0 0 -1 0 0 -1 0 0 -1 
0 0 -1 0 0 -1 0 0 -1 
0 0 -1 0 0 -1 0.039968 0 -0.999201 
0.999201 0 -0.039968 -0.039968 0 -0.999201 -0.999201 0 -0.039968 
0 0 -1 0 0 -1 0 0 -1 
0 0 -1 0 0 -1 0 0 -1 
0 0 -1 0 0 -1 0 0 -1 
0 0 -1 0.039968 0 -0.999201 0.999201 0 -0.039968 
-0.039968 0 -0.999201 -0.999201 0 -0.039968 0 0 -1 
0 0 -1 0 0 -1 0 0 -1 
0 0 -1 0 0 -1 0 0 -1 
0 0 -1 0 0 -1 0 0 -1 
0.039968 0 -0.999201 0.999201 0 -0.039968 -0.039968 0 -0.999201 
-0.721087 -0.692244 -0.0288435 0 0 -1 0 0 -1 
0 0 -1 0 0 -1 0 0 -1 
0 0 -1 0 0 -1 0 0 -1 
0 0 -1 0 0 -1 0.039968 0 -0.999201 
0.999201 0 -0.039968 -0.039968 0 -0.999201 -0.721087 -0.692244 -0.0288435 
-0.999201 0 -0.039968 0 0 -1 0 0 -1 
0 0 -1 0 0 -1 0 0 -1 
0 0 -1 0 0 -1 0 0 -1 
0 0 -1 0 0 -1 0 0 -1 
0.039968 0 -0.999201 0.999201 0 -0.039968 -0.585045 0.561644 -0.585045 
-0.585045 0.561644 -0.585045 -0.039968 0 -0.999201 0 0 -1 
0 0 -1 0 0 -1 0 0 -1 
0 0 -1 0 0 -1 0 0 -1 
0 0 -1 0 0 -1 0 0 -1 
0.039968 0 -0.999201 0.999201 0 -0.039968 -0.039968 0 -0.999201 
-0.707107 0 -0.707107 0 0 -1 0 0 -1 
0 0 -1 0 0 -1 0 0 -1 
0 0 -1 0 0 -1 0 0 -1 
0 0 -1 0 0 -1 0.0416305 0 -0.999133 
1 0 0 -0.039968 0 -0.999201 -0.707107 0 -0.707107 
0 0 -1 0 0 -1 0 0 -1 
0 0 -1 0 0 -1 0 0 -1 
0 0 -1 0 0 -1 0 0 -1 
0 0 -1 0.0416305 0 -0.999133 1 0 0 
-0.039968 0 -0.999201 -0.707107 0 -0.707107 0 0 -1 
0 0 -1 0 0 -1 0 0 -1 
0 0 -1 0 0 -1 0 0 -1 
0 0 -1 0 0 -1 0 0 -1 
0.0416305 0 -0.999133 1 0 0 -0.0288435 -0.692244 -0.721087 
-0.707107 0 -0.707107 0 -0.692532 -0.721387 0 0 -1 
0 0 -1 0 0 -1 0 0 -1 
0 0 -1 0 0 -1 0 0 -1 
0 0 -1 0 0 -1 0.039968 0 -0.999201 
0.999201 0 -0.039968 -0.721387 0 -0.692532 0.692532 0 -0.721387 
0 0 -1 0 0 -1 0 0 -1 
0 0 -1 0 0 -1 0 0 -1 
0 0 -1 0 0 -1 0.039968 0 -0.999201 
0.999201 0 -0.039968 -0.585045 0.561644 -0.585045 -0.999201 0 -0.039968 
0.692532 0 -0.721387 0 0 -1 0 0 -1 
0 0 -1 0 0 -1 0 0 -1 
0 0 -1 0 0 -1 0 0 -1 
0.039968 0 -0.999201 0.999201 0 -0.039968 -0.707107 0 -0.707107 
-0.999201 0 -0.039968 0.692532 0 -0.721387 0 0 -1 
0 0 -1 0 0 -1 0 0 -1 
0 0 -1 0 0 -1 0 0 -1 
0 0 -1 0.039968 0 -0.999201 0.999201 0 -0.039968 
-0.707107 0 -0.707107 -0.999201 0 -0.039968 0.692532 0 -0.721387 
0 0 -1 0 0 -1 0 0 -1 
0 0 -1 0 0 -1 0 0 -1 
0 0 -1 0 0 -1 0.039968 0 -0.999201 
0.999201 0 -0.039968 -0.707107 0 -0.707107 -0.999201 0 -0.039968 
0.692532 0 -0.721387 0 0 -1 0 0 -1 
0 0 -1 0 0 -1 0 0 -1 
0 0 -1 0 0 -1 0 0 -1 
0.039968 0 -0.999201 0.999201 0 -0.039968 -0.707107 0 -0.707107 
-0.999201 0 -0.039968 0.569335 -0.569335 -0.593057 0 -0.692532 -0.721387 
0 0 -1 0 0 -1 0 0 -1 
0 0 -1 0 0 -1 0 0 -1 
0 0 -1 0.039968 0 -0.999201 0.999201 0 -0.039968 
-0.707107 0 -0.707107 -0.999201 0 -0.039968 0.692532 0 -0.721387 
0 0 -1 0 0 -1 0 0 -1 
0 0 -1 0 0 -1 0 0 -1 
0.039968 0 -0.999201 0.999201 0 -0.039968 -0.039968 0 -0.999201 
-0.999201 0 -0.039968 0 0.692532 -0.721387 -0.569335 0.569335 -0.593057 
0.692532 0 -0.721387 0 0 -1 0 0 -1 
0 0 -1 0 0 -1 0 0 -1 
0 0 -1 0.039968 0 -0.999201 0.999201 0 -0.039968 
-0.0399362 0.0399362 -0.998404 -0.998404 0.0399362 -0.0399362 0 0.039968 -0.999201 
-0.692532 0 -0.721387 0.692532 0 -0.721387 0 0 -1 
0 0 -1 0 0 -1 0 0 -1 
0 0 -1 0 0 -1 0.039968 0 -0.999201 
0.999201 0 -0.039968 -0.0399362 0.998404 -0.0399362 -0.692244 0.721087 -0.0288435 
-0.721087 0.692244 -0.0288435 -0.707107 0 -0.707107 0.569335 -0.569335 -0.593057 
0 -0.692532 -0.721387 0 0 -1 0 -0.692532 -0.721387 
0 -0.692532 -0.721387 0 -0.692532 -0.721387 0 -0.692532 -0.721387 
0.0288435 -0.692244 -0.721087 0.999201 0 -0.039968 -0.707107 0 -0.707107 
-0.999201 0 -0.039968 0 0 -1 1 0 0 
-0.039968 0 -0.999201 -0.999201 0 -0.039968 0 0.692532 -0.721387 
-0.569335 0.569335 -0.593057 0 -0.692532 -0.721387 0.999201 0.039968 0 
-0.0399362 0.0399362 -0.998404 -0.998404 0.0399362 -0.0399362 0 0.039968 -0.999201 
-0.692244 0.0288435 -0.721087 0.585045 0.585045 -0.561644 0.585045 0.585045 -0.561644 
-0.0399362 0.998404 -0.0399362 0 0.999201 -0.039968 0 0.999201 -0.039968 
-0.692532 0.721387 0 -0.0288435 0.692244 -0.721087 -0.721087 0.692244 -0.0288435 
0 0.692532 -0.721387 0 0.692532 -0.721387 0.028273 0.706824 -0.706824 
0.706824 0.706824 -0.028273 0.707107 0.707107 0 -0.0399362 0.0399362 -0.998404 
-0.998404 0.0399362 -0.0399362 0 0.039968 -0.999201 0.0399362 0.0399362 -0.998404 
0.706824 0.706824 -0.028273 0.706824 0.706824 -0.028273 -0.0399362 0.998404 -0.0399362 
0 0.999201 -0.039968 0.0399362 0.998404 -0.0399362 -0.0399362 -0.998404 0.0399362 
-0.998404 -0.0399362 0.0399362 0 -0.999201 0.039968 0.0399362 -0.998404 0.0399362 
0.721087 -0.0288435 0.692244 0.706824 -0.028273 0.706824 -0.999201 0 0.039968 
0.593057 -0.569335 0.569335 0.585045 -0.561644 0.585045 -0.721087 -0.692244 0.0288435 
0.561644 -0.585045 0.585045 0 -0.999201 0.039968 0 -0.999201 0.039968 
0.0399362 -0.998404 0.0399362 0.721087 -0.0288435 0.692244 0.706824 -0.028273 0.706824 
-0.585045 -0.585045 -0.561644 -0.039968 -0.999201 0 -0.999201 -0.039968 0 
-0.692244 -0.721087 0.0288435 0.721387 0 0.692532 0.707107 0 0.707107 
-0.721387 -0.692532 0 0.721387 0 0.692532 0.707107 0 0.707107 
-0.706824 -0.028273 -0.706824 -0.706824 -0.706824 -0.028273 -0.998404 -0.0399362 -0.0399362 
0.721387 0 0.692532 0.707107 0 0.707107 -0.707107 0 -0.707107 
-0.707107 0 -0.707107 0.721387 0 0.692532 0.707107 0 0.707107 
-0.707107 0 -0.707107 -0.707107 0 -0.707107 0.593057 -0.569335 0.569335 
0.585045 -0.561644 0.585045 -0.707107 0 -0.707107 -0.707107 0 -0.707107 
0.561644 -0.585045 0.585045 0.0399362 -0.998404 0.0399362 0.721087 -0.0288435 0.692244 
0.706824 -0.028273 0.706824 -0.707107 0 -0.707107 -0.707107 0 -0.707107 
0.721387 0 0.692532 0.707107 0 0.707107 -0.585045 -0.561644 -0.585045 
-0.585045 -0.561644 -0.585045 0.721387 0 0.692532 0.707107 0 0.707107 
-0.0399362 -0.0399362 -0.998404 -0.0399362 -0.998404 -0.0399362 -0.998404 -0.0399362 -0.0399362 
-0.561644 -0.585045 -0.585045 -0.561644 -0.585045 -0.585045 0.721387 0 0.692532 
0.707107 0 0.707107 -0.585045 -0.561644 -0.585045 -0.585045 -0.561644 -0.585045 
0.721087 0.0288435 0.692244 0.706824 0.028273 0.706824 -0.707107 0 -0.707107 
-0.585045 -0.561644 -0.585045 -0.999201 0 -0.039968 0.585045 0.585045 0.561644 
0.585045 0.561644 0.585045 0.57735 0.57735 0.57735 -0.585045 0.561644 -0.585045 
-0.585045 0.561644 -0.585045 -0.585045 0.561644 -0.585045 1 0 0 
-0.707107 0 -0.707107 -0.707107 0 -0.707107 1 0 0 
-0.707107 0 -0.707107 -0.707107 0 -0.707107 1 0 0 
-0.706824 0.028273 -0.706824 -0.706824 0.028273 -0.706824 1 0 0 
-0.706824 0.706824 -0.028273 -0.721387 0.692532 0 1 0 0 
-1 0 0 1 0 0 -1 0 0 
1 0 0 -1 0 0 1 0 0 
-1 0 0 1 0 0 -1 0 0 
1 0 0 -1 0 0 1 0 0 
-1 0 0 1 0 0 -0.721387 -0.692532 0 
1 0 0 -0.706824 -0.706824 0.028273 -0.998404 -0.0399362 0.0399362 
1 0 0 -0.593057 0.569335 -0.569335 -1 0 0 
0.999201 0.039968 0 -0.721387 0 -0.692532 -1 0 0 
0.593057 0.569335 0.569335 0.593057 0.569335 0.569335 0.585045 0.585045 0.561644 
-0.721387 0 -0.692532 -1 0 0 0.721387 0 0.692532 