# vtk DataFile Version 3.0
vtk output
ASCII
DATASET POLYDATA
POINTS 4042 float
119 92 35.0102 119 91.0102 36 118.01 92 36 
120 92 35.0102 120 91.0102 36 120.99 92 36 
119 93 35.0102 118.01 93 36 120 93 35.0102 
120.99 93 36 119 94 35.0102 118.01 94 36 
120 94 35.0102 120.99 94 36 119 95 35.0102 
118.01 95 36 120 95 35.0102 120.99 95 36 
119 95.9898 36 120 95.9898 36 121 95.0102 36 
120.01 96 36 121 96 35.0102 122 96 35.0102 
122 95.0102 36 122.99 96 36 121 97 35.0102 
120.01 97 36 121.99 97 36 122 96.9898 36 
121 97.9898 36 118 92 36.0102 118 91.0102 37 
117.01 92 37 119 91.0102 37 120 91.0102 37 
120.99 92 37 118 93 36.0102 117.01 93 37 
120.99 93 37 118 94 36.0102 117.01 94 37 
120.99 94 37 118 95 36.0102 117.01 95 37 
121 94.0102 37 121 95 36.0102 121.99 95 37 
118 95.9898 37 119 95.9898 37 120 96 36.0102 
119.01 96 37 122 95.0102 37 122.99 96 37 
120 97 36.0102 119.01 97 37 122 97 36.0102 
123 96.0102 37 123 97 36.0102 123.99 97 37 
120 97.9898 37 121 97.9898 37 122 97.9898 37 
123 97.9898 37 118 91 37.0102 118 90.0102 38 
117.01 91 38 118.99 91 38 117 92 37.0102 
117 91.0102 38 116.01 92 38 119 91.0102 38 
120 91.0102 38 120.99 92 38 117 93 37.0102 
116.01 93 38 120.99 93 38 117 94 37.0102 
116.01 94 38 121 93.0102 38 121 94 37.0102 
122 94 37.0102 122 93.0102 38 122.99 94 38 
117 95 37.0102 116.01 95 38 122 95 37.0102 
122.99 95 38 117 96 37.0102 116.01 96 38 
118 96 37.0102 119 96 37.0102 123 96 37.0102 
123 95.0102 38 124 96 37.0102 124 95.0102 38 
124.99 96 38 117 97 37.0102 116.01 97 38 
118 97 37.0102 119 97 37.0102 124 97 37.0102 
124.99 97 38 117 97.9898 38 118 97.9898 38 
118.01 98 38 119 98 37.0102 120 98 37.0102 
121 98 37.0102 122 98 37.0102 123 98 37.0102 
124 98 37.0102 125 97.0102 38 125 98 37.0102 
126 98 37.0102 126 97.0102 38 126.99 98 38 
119 99 37.0102 118.01 99 38 120 99 37.0102 
121 99 37.0102 122 99 37.0102 123 99 37.0102 
124 99 37.0102 125 99 37.0102 125.99 99 38 
126 98.9898 38 119 99.9898 38 120 99.9898 38 
121 99.9898 38 122 99.9898 38 123 99.9898 38 
124 99.9898 38 125 99.9898 38 118 89 38.0102 
118 88.0102 39 117.01 89 39 118.99 89 39 
118 90 38.0102 117.01 90 39 118.99 90 39 
116 91 38.0102 116 90.0102 39 115.01 91 39 
117 91 38.0102 117 90.0102 39 119 91 38.0102 
119 90.0102 39 119.99 91 39 116 92 38.0102 
115.01 92 39 120 91.0102 39 120.99 92 39 
116 93 38.0102 115.01 93 39 121 92.0102 39 
121 93 38.0102 121.99 93 39 116 94 38.0102 
115.01 94 39 122 93.0102 39 122.99 94 39 
116 95 38.0102 115.01 95 39 123 94.0102 39 
123 95 38.0102 123.99 95 39 116 96 38.0102 
115.01 96 39 124 95.0102 39 124.99 96 39 
116 97 38.0102 115.01 97 39 124.99 97 39 
116 97.9898 39 117 97.9898 39 118 98 38.0102 
117.01 98 39 125 97.0102 39 126 97.0102 39 
126.99 98 39 118 99 38.0102 117.01 99 39 
125.99 99 39 126 98.9898 39 118 99.9898 39 
119 99.9898 39 120 99.9898 39 121 99.9898 39 
122 99.9898 39 123 99.9898 39 124 99.9898 39 
125 99.9898 39 117 86 39.0102 117 85.0102 40 
116.01 86 40 118 86 39.0102 118 85.0102 40 
118.99 86 40 117 87 39.0102 116.01 87 40 
118 87 39.0102 118.99 87 40 117 88 39.0102 
116.01 88 40 118 88 39.0102 118.99 88 40 
116 89 39.0102 116 88.0102 40 115.01 89 40 
117 89 39.0102 118.99 89 40 115 90 39.0102 
115 89.0102 40 114.01 90 40 116 90 39.0102 
117 90 39.0102 119 89.0102 40 119 90 39.0102 
120 90 39.0102 120 89.0102 40 120.99 90 40 
115 91 39.0102 114.01 91 40 120 91 39.0102 
120.99 91 40 115 92 39.0102 114.01 92 40 
121 92 39.0102 121 91.0102 40 122 92 39.0102 
122 91.0102 40 122.99 92 40 115 93 39.0102 
114.01 93 40 122 93 39.0102 122.99 93 40 
115 94 39.0102 114.01 94 40 123 94 39.0102 
123 93.0102 40 124 94 39.0102 124 93.0102 40 
124.99 94 40 115 95 39.0102 114.01 95 40 
124 95 39.0102 124.99 95 40 115 96 39.0102 
114.01 96 40 124.99 96 40 115 97 39.0102 
114.01 97 40 124.99 97 40 115 98 39.0102 
114.01 98 40 116 98 39.0102 117 98 39.0102 
125 97.0102 40 126 97.0102 40 126.99 98 40 
115 99 39.0102 114.01 99 40 116 99 39.0102 
117 99 39.0102 125.99 99 40 126 98.9898 40 
115 99.9898 40 116 99.9898 40 116.01 100 40 
117 100 39.0102 118 100 39.0102 119 100 39.0102 
120 100 39.0102 121 100 39.0102 122 100 39.0102 
123 100 39.0102 124 100 39.0102 124.99 100 40 
125 99.9898 40 117 101 39.0102 116.01 101 40 
118 101 39.0102 119 101 39.0102 120 101 39.0102 
121 101 39.0102 122 101 39.0102 123 101 39.0102 
123.99 101 40 124 100.99 40 117 101.99 40 
118 101.99 40 119 101.99 40 120 101.99 40 
121 101.99 40 122 101.99 40 123 101.99 40 
116 85 40.0102 116 84.0102 41 115.01 85 41 
116.99 85 41 116 86 40.0102 115.01 86 41 
117 85.0102 41 118 85.0102 41 118.99 86 41 
116 87 40.0102 115.01 87 41 118.99 87 41 
116 88 40.0102 115.01 88 41 118.99 88 41 
114 89 40.0102 114 88.0102 41 113.01 89 41 
115 89 40.0102 115 88.0102 41 119 88.0102 41 
119 89 40.0102 119.99 89 41 114 90 40.0102 
113.01 90 41 120 89.0102 41 120.99 90 41 
114 91 40.0102 113.01 91 41 121 90.0102 41 
121 91 40.0102 121.99 91 41 114 92 40.0102 
113.01 92 41 122 91.0102 41 122.99 92 41 
114 93 40.0102 113.01 93 41 123 92.0102 41 
123 93 40.0102 123.99 93 41 114 94 40.0102 
113.01 94 41 124 93.0102 41 124.99 94 41 
114 95 40.0102 113.01 95 41 124.99 95 41 
114 96 40.0102 113.01 96 41 124.99 96 41 
114 97 40.0102 113.01 97 41 124.99 97 41 
114 98 40.0102 113.01 98 41 125 97.0102 41 
126 98 40.9898 125.99 98 41 114 99 40.0102 
113.01 99 41 124 99 40.9898 123.99 99 41 
124 98.9898 41 125 98.9898 41 125 99 40.9898 
114 99.9898 41 115 99.9898 41 116 100 40.0102 
115.01 100 41 124 100 40.9898 123.99 100 41 
116 101 40.0102 115.01 101 41 121 101 40.9898 
120.99 101 41 121 100.99 41 122 100.99 41 
122 101 40.9898 123 100.99 41 123 101 40.9898 
116 101.99 41 117 101.99 41 118 101.99 41 
119 101.99 41 120 101.99 41 113 82 41.0102 
113 81.0102 42 112.01 82 42 114 82 41.0102 
114 81.0102 42 114.99 82 42 113 83 41.0102 
112.01 83 42 114 83 41.0102 114.99 83 42 
113 84 41.0102 112.01 84 42 114 84 41.0102 
115 83.0102 42 115 84 41.0102 116 84 41.0102 
116 83.0102 42 116.99 84 42 113 85 41.0102 
112.01 85 42 114 85 41.0102 115 85 41.0102 
116.99 85 42 113 86 41.0102 112.01 86 42 
114 86 41.0102 115 86 41.0102 117 85.0102 42 
118 85.0102 42 118.99 86 42 113 87 41.0102 
112.01 87 42 114 87 41.0102 115 87 41.0102 
118.99 87 42 113 88 41.0102 112.01 88 42 
114 88 41.0102 115 88 41.0102 119 87.0102 42 
119 88 41.0102 120 88 41.0102 120 87.0102 42 
120.99 88 42 113 89 41.0102 112.01 89 42 
120 89 41.0102 120.99 89 42 113 90 41.0102 
112.01 90 42 121 90 41.0102 121 89.0102 42 
122 90 41.0102 122 89.0102 42 122.99 90 42 
113 91 41.0102 112.01 91 42 122 91 41.0102 
122.99 91 42 113 92 41.0102 112.01 92 42 
123 92 41.0102 123 91.0102 42 124 92 41.0102 
124 91.0102 42 124.99 92 42 113 93 41.0102 
112.01 93 42 124 93 41.0102 124.99 93 42 
113 94 41.0102 112.01 94 42 124.99 94 42 
113 95 41.0102 112.01 95 42 124.99 95 42 
113 96 41.0102 112.01 96 42 124.99 96 42 
113 97 41.0102 112.01 97 42 124 97 41.9898 
123.99 97 42 124 96.9898 42 113 98 41.0102 
112.01 98 42 123 98 41.9898 122.99 98 42 
123 97.9898 42 124 98 41.9898 125 98 41.9898 
113 99 41.0102 112.01 99 42 122 99 41.9898 
121.99 99 42 122 98.9898 42 123 99 41.9898 
113 100 41.0102 112.01 100 42 114 100 41.0102 
115 100 41.0102 121 100 41.9898 120.99 100 42 
121 99.9898 42 122 100 41.9898 123 100 41.9898 
113 101 41.0102 112.01 101 42 114 101 41.0102 
115 101 41.0102 120 101 41.9898 119.99 101 42 
120 100.99 42 113 101.99 42 114 101.99 42 
114.01 102 42 115 102 41.0102 116 102 41.0102 
117 102 41.0102 118 102 41.0102 118.99 102 42 
119 101.99 42 115 103 41.0102 114.01 103 42 
116 103 41.0102 117 103 41.0102 117.99 103 42 
118 102.99 42 115 103.99 42 116 103.99 42 
117 103.99 42 112 81 42.0102 112 80.0102 43 
111.01 81 43 112.99 81 43 112 82 42.0102 
111.01 82 43 113 81.0102 43 114 81.0102 43 
114.99 82 43 112 83 42.0102 111.01 83 43 
114.99 83 43 112 84 42.0102 111.01 84 43 
115 83.0102 43 116 83.0102 43 116.99 84 43 
112 85 42.0102 111.01 85 43 117 84.0102 43 
117 85 42.0102 117.99 85 43 112 86 42.0102 
111.01 86 43 118 85.0102 43 118.99 86 43 
112 87 42.0102 111.01 87 43 119 86.0102 43 
119 87 42.0102 119.99 87 43 112 88 42.0102 
111.01 88 43 120 87.0102 43 120.99 88 43 
112 89 42.0102 111.01 89 43 121 88.0102 43 
121 89 42.0102 121.99 89 43 112 90 42.0102 
111.01 90 43 122 89.0102 43 122.99 90 43 
112 91 42.0102 111.01 91 43 122.99 91 43 
112 92 42.0102 111.01 92 43 123 91.0102 43 
124 92 42.9898 123.99 92 43 112 93 42.0102 
111.01 93 43 124 93 42.9898 123.99 93 43 
112 94 42.0102 111.01 94 43 124 94 42.9898 
123.99 94 43 112 95 42.0102 111.01 95 43 
124 95 42.9898 123.99 95 43 112 96 42.0102 
111.01 96 43 124 96 42.9898 123.99 96 43 
112 97 42.0102 111.01 97 43 122 97 42.9898 
121.99 97 43 122 96.9898 43 123 96.9898 43 
123 97 42.9898 112 98 42.0102 111.01 98 43 
122 98 42.9898 121.99 98 43 112 99 42.0102 
111.01 99 43 120 99 42.9898 119.99 99 43 
120 98.9898 43 121 98.9898 43 121 99 42.9898 
112 100 42.0102 111.01 100 43 120 100 42.9898 
119.99 100 43 112 100.99 43 112.01 101 43 
119 101 42.9898 118.99 101 43 119 100.99 43 
113 101.99 43 114 102 42.0102 113.01 102 43 
118 102 42.9898 117.99 102 43 118 101.99 43 
114 102.99 43 114.01 103 43 116 103 42.9898 
115.99 103 43 116 102.99 43 117 102.99 43 
117 103 42.9898 115 103.99 43 109 76 43.0102 
109 75.0102 44 108.01 76 44 110 76 43.0102 
110 75.0102 44 110.99 76 44 109 77 43.0102 
108.01 77 44 110 77 43.0102 110.99 77 44 
109 78 43.0102 108.01 78 44 110 78 43.0102 
111 77.0102 44 111 78 43.0102 112 78 43.0102 
112 77.0102 44 112.99 78 44 109 79 43.0102 
108.01 79 44 110 79 43.0102 111 79 43.0102 
112 79 43.0102 112.99 79 44 109 80 43.0102 
108.01 80 44 110 80 43.0102 111 80 43.0102 
112 80 43.0102 112.99 80 44 109 81 43.0102 
108.01 81 44 110 81 43.0102 111 81 43.0102 
112.99 81 44 109 82 43.0102 108.01 82 44 
110 82 43.0102 111 82 43.0102 113 81.0102 44 
114 81.0102 44 114.99 82 44 109 83 43.0102 
108.01 83 44 110 83 43.0102 111 83 43.0102 
114.99 83 44 109 84 43.0102 108.01 84 44 
110 84 43.0102 111 84 43.0102 115 83.0102 44 
[...]
POINT_DATA 4042
SCALARS scalars float
LOOKUP_TABLE default
1 1 1 1 1 1 1 1 1 
1 1 1 1 1 1 1 1 1 
1 1 1 1 1 1 1 1 1 
1 1 1 1 1 1 1 1 1 
1 1 1 1 1 1 1 1 1 
1 1 1 1 1 1 1 1 1 
1 1 1 1 1 1 1 1 1 
1 1 1 1 1 1 1 1 1 
1 1 1 1 1 1 1 1 1 
1 1 1 1 1 1 1 1 1 
1 1 1 1 1 1 1 1 1 
1 1 1 1 1 1 1 1 1 
1 1 1 1 1 1 1 1 1 
1 1 1 1 1 1 1 1 1 
1 1 1 1 1 1 1 1 1 
1 1 1 1 1 1 1 1 1 
1 1 1 1 1 1 1 1 1 
1 1 1 1 1 1 1 1 1 
1 1 1 1 1 1 1 1 1 
1 1 1 1 1 1 1 1 1 
1 1 1 1 1 1 1 1 1 
1 1 1 1 1 1 1 1 1 
1 1 1 1 1 1 1 1 1 
1 1 1 1 1 1 1 1 1 
1 1 1 1 1 1 1 1 1 
1 1 1 1 1 1 1 1 1 
1 1 1 1 1 1 1 1 1 
1 1 1 1 1 1 1 1 1 
1 1 1 1 1 1 1 1 1 
1 1 1 1 1 1 1 1 1 
1 1 1 1 1 1 1 1 1 
1 1 1 1 1 1 1 1 1 
1 1 1 1 1 1 1 1 1 
1 1 1 1 1 1 1 1 1 
1 1 1 1 1 1 1 1 1 
1 1 1 1 1 1 1 1 1 
1 1 1 1 1 1 1 1 1 
1 1 1 1 1 1 1 1 1 
1 1 1 1 1 1 1 1 1 
1 1 1 1 1 1 1 1 1 
1 1 1 1 1 1 1 1 1 
1 1 1 1 1 1 1 1 1 
1 1 1 1 1 1 1 1 1 
1 1 1 1 1 1 1 1 1 
1 1 1 1 1 1 1 1 1 
1 1 1 1 1 1 1 1 1 
1 1 1 1 1 1 1 1 1 
1 1 1 1 1 1 1 1 1 
1 1 1 1 1 1 1 1 1 
1 1 1 1 1 1 1 1 1 
1 1 1 1 1 1 1 1 1 
1 1 1 1 1 1 1 1 1 
1 1 1 1 1 1 1 1 1 
1 1 1 1 1 1 1 1 1 
1 1 1 1 1 1 1 1 1 
1 1 1 1 1 1 1 1 1 
1 1 1 1 1 1 1 1 1 
1 1 1 1 1 1 1 1 1 
1 1 1 1 1 1 1 1 1 
1 1 1 1 1 1 1 1 1 
1 1 1 1 1 1 1 1 1 
1 1 1 1 1 1 1 1 1 
1 1 1 1 1 1 1 1 1 
1 1 1 1 1 1 1 1 1 
1 1 1 1 1 1 1 1 1 
1 1 1 1 1 1 1 1 1 
1 1 1 1 1 1 1 1 1 
1 1 1 1 1 1 1 1 1 
1 1 1 1 1 1 1 1 1 
1 1 1 1 1 1 1 1 1 
1 1 1 1 1 1 1 1 1 
1 1 1 1 1 1 1 1 1 
1 1 1 1 1 1 1 1 1 
1 1 1 1 1 1 1 1 1 
1 1 1 1 1 1 1 1 1 
1 1 1 1 1 1 1 1 1 
1 1 1 1 1 1 1 1 1 
1 1 1 1 1 1 1 1 1 
1 1 1 1 1 1 1 1 1 
1 1 1 1 1 1 1 1 1 
1 1 1 1 1 1 1 1 1 
1 1 1 1 1 1 1 1 1 
1 1 1 1 1 1 1 1 1 
1 1 1 1 1 1 1 1 1 
1 1 1 1 1 1 1 1 1 
1 1 1 1 1 1 1 1 1 
1 1 1 1 1 1 1 1 1 
1 1 1 1 1 1 1 1 1 
1 1 1 1 1 1 1 1 1 
1 1 1 1 1 1 1 1 1 
1 1 1 1 1 1 1 1 1 
1 1 1 1 1 1 1 1 1 
1 1 1 1 1 1 1 1 1 
1 1 1 1 1 1 1 1 1 
1 1 1 1 1 1 1 1 1 
1 1 1 1 1 1 1 1 1 
1 1 1 1 1 1 1 1 1 
1 1 1 1 1 1 1 1 1 
1 1 1 1 1 1 1 1 1 
1 1 1 1 1 1 1 1 1 
1 1 1 1 1 1 1 1 1 
1 1 1 1 1 1 1 1 1 
1 1 1 1 1 1 1 1 1 
1 1 1 1 1 1 1 1 1 
1 1 1 1 1 1 1 1 1 
1 1 1 1 1 1 1 1 1 
1 1 1 1 1 1 1 1 1 
1 1 1 1 1 1 1 1 1 
1 1 1 1 1 1 1 1 1 
1 1 1 1 1 1 1 1 1 
1 1 1 1 1 1 1 1 1 
1 1 1 1 1 1 1 1 1 
1 1 1 1 1 1 1 1 1 
1 1 1 1 1 1 1 1 1 
1 1 1 1 1 1 1 1 1 
1 1 1 1 1 1 1 1 1 
1 1 1 1 1 1 1 1 1 
1 1 1 1 1 1 1 1 1 
1 1 1 1 1 1 1 1 1 
1 1 1 1 1 1 1 1 1 
1 1 1 1 1 1 1 1 1 
1 1 1 1 1 1 1 1 1 
1 1 1 1 1 1 1 1 1 
1 1 1 1 1 1 1 1 1 
1 1 1 1 1 1 1 1 1 
1 1 1 1 1 1 1 1 1 
1 1 1 1 1 1 1 1 1 
1 1 1 1 1 1 1 1 1 
1 1 1 1 1 1 1 1 1 
1 1 1 1 1 1 1 1 1 
1 1 1 1 1 1 1 1 1 
1 1 1 1 1 1 1 1 1 
1 1 1 1 1 1 1 1 1 
1 1 1 1 1 1 1 1 1 
1 1 1 1 1 1 1 1 1 
1 1 1 1 1 1 1 1 1 
1 1 1 1 1 1 1 1 1 
1 1 1 1 1 1 1 1 1 
1 1 1 1 1 1 1 1 1 
1 1 1 1 1 1 1 1 1 
1 1 1 1 1 1 1 1 1 
1 1 1 1 1 1 1 1 1 
1 1 1 1 1 1 1 1 1 
1 1 1 1 1 1 1 1 1 
1 1 1 1 1 1 1 1 1 
1 1 1 1 1 1 1 1 1 
1 1 1 1 1 1 1 1 1 
1 1 1 1 1 1 1 1 1 
1 1 1 1 1 1 1 1 1 
1 1 1 1 1 1 1 1 1 
1 1 1 1 1 1 1 1 1 
1 1 1 1 1 1 1 1 1 
1 1 1 1 1 1 1 1 1 
1 1 1 1 1 1 1 1 1 
1 1 1 1 1 1 1 1 1 
1 1 1 1 1 1 1 1 1 
1 1 1 1 1 1 1 1 1 
1 1 1 1 1 1 1 1 1 
1 1 1 1 1 1 1 1 1 
1 1 1 1 1 1 1 1 1 
1 1 1 1 1 1 1 1 1 
1 1 1 1 1 1 1 1 1 
1 1 1 1 1 1 1 1 1 
1 1 1 1 1 1 1 1 1 
1 1 1 1 1 1 1 1 1 
1 1 1 1 1 1 1 1 1 
1 1 1 1 1 1 1 1 1 
1 1 1 1 1 1 1 1 1 
1 1 1 1 1 1 1 1 1 
1 1 1 1 1 1 1 1 1 
1 1 1 1 1 1 1 1 1 
1 1 1 1 1 1 1 1 1 
1 1 1 1 1 1 1 1 1 
1 1 1 1 1 1 1 1 1 
1 1 1 1 1 1 1 1 1 
1 1 1 1 1 1 1 1 1 
1 1 1 1 1 1 1 1 1 
1 1 1 1 1 1 1 1 1 
1 1 1 1 1 1 1 1 1 
1 1 1 1 1 1 1 1 1 
1 1 1 1 1 1 1 1 1 
1 1 1 1 1 1 1 1 1 
1 1 1 1 1 1 1 1 1 
1 1 1 1 1 1 1 1 1 
1 1 1 1 1 1 1 1 1 
1 1 1 1 1 1 1 1 1 
1 1 1 1 1 1 1 1 1 
1 1 1 1 1 1 1 1 1 
1 1 1 1 1 1 1 1 1 
1 1 1 1 1 1 1 1 1 
1 1 1 1 1 1 1 1 1 
1 1 1 1 1 1 1 1 1 
1 1 1 1 1 1 1 1 1 
1 1 1 1 1 1 1 1 1 
1 1 1 1 1 1 1 1 1 
1 1 1 1 1 1 1 1 1 
1 1 1 1 1 1 1 1 1 
1 1 1 1 1 1 1 1 1 
1 1 1 1 1 1 1 1 1 
1 1 1 1 1 1 1 1 1 
1 1 1 1 1 1 1 1 1 
1 1 1 1 1 1 1 1 1 
1 1 1 1 1 1 1 1 1 
1 1 1 1 1 1 1 1 1 
1 1 1 1 1 1 1 1 1 
1 1 1 1 1 1 1 1 1 
1 1 1 1 1 1 1 1 1 
1 1 1 1 1 1 1 1 1 
1 1 1 1 1 1 1 1 1 
1 1 1 1 1 1 1 1 1 
1 1 1 1 1 1 1 1 1 
1 1 1 1 1 1 1 1 1 
1 1 1 1 1 1 1 1 1 
1 1 1 1 1 1 1 1 1 
1 1 1 1 1 1 1 1 1 
1 1 1 1 1 1 1 1 1 
1 1 1 1 1 1 1 1 1 
1 1 1 1 1 1 1 1 1 
1 1 1 1 1 1 1 1 1 
1 1 1 1 1 1 1 1 1 
1 1 1 1 1 1 1 1 1 
1 1 1 1 1 1 1 1 1 
1 1 1 1 1 1 1 1 1 
1 1 1 1 1 1 1 1 1 
1 1 1 1 1 1 1 1 1 
1 1 1 1 1 1 1 1 1 
1 1 1 1 1 1 1 1 1 
1 1 1 1 1 1 1 1 1 
1 1 1 1 1 1 1 1 1 
1 1 1 1 1 1 1 1 1 
1 1 1 1 1 1 1 1 1 
1 1 1 1 1 1 1 1 1 
1 1 1 1 1 1 1 1 1 
1 1 1 1 1 1 1 1 1 
1 1 1 1 1 1 1 1 1 
1 1 1 1 1 1 1 1 1 
1 1 1 1 1 1 1 1 1 
1 1 1 1 1 1 1 1 1 
1 1 1 1 1 1 1 1 1 
1 1 1 1 1 1 1 1 1 
1 1 1 1 1 1 1 1 1 
1 1 1 1 1 1 1 1 1 
1 1 1 1 1 1 1 1 1 
1 1 1 1 1 1 1 1 1 
1 1 1 1 1 1 1 1 1 
1 1 1 1 1 1 1 1 1 
1 1 1 1 1 1 1 1 1 
1 1 1 1 1 1 1 1 1 
1 1 1 1 1 1 1 1 1 
1 1 1 1 1 1 1 1 1 
1 1 1 1 1 1 1 1 1 
1 1 1 1 1 1 1 1 1 
1 1 1 1 1 1 1 1 1 
1 1 1 1 1 1 1 1 1 
1 1 1 1 1 1 1 1 1 
1 1 1 1 1 1 1 1 1 
1 1 1 1 1 1 1 1 1 
1 1 1 1 1 1 1 1 1 
1 1 1 1 1 1 1 1 1 
1 1 1 1 1 1 1 1 1 
1 1 1 1 1 1 1 1 1 
1 1 1 1 1 1 1 1 1 
1 1 1 1 1 1 1 1 1 
1 1 1 1 1 1 1 1 1 
1 1 1 1 1 1 1 1 1 
1 1 1 1 1 1 1 1 1 
1 1 1 1 1 1 1 1 1 
1 1 1 1 1 1 1 1 1 
1 1 1 1 1 1 1 1 1 
1 1 1 1 1 1 1 1 1 
1 1 1 1 1 1 1 1 1 
1 1 1 1 1 1 1 1 1 
1 1 1 1 1 1 1 1 1 
1 1 1 1 1 1 1 1 1 
1 1 1 1 1 1 1 1 1 
1 1 1 1 1 1 1 1 1 
1 1 1 1 1 1 1 1 1 
1 1 1 1 1 1 1 1 1 
1 1 1 1 1 1 1 1 1 
1 1 1 1 1 1 1 1 1 
1 1 1 1 1 1 1 1 1 
1 1 1 1 1 1 1 1 1 
1 1 1 1 1 1 1 1 1 
1 1 1 1 1 1 1 1 1 
1 1 1 1 1 1 1 1 1 
1 1 1 1 1 1 1 1 1 
1 1 1 1 1 1 1 1 1 
1 1 1 1 1 1 1 1 1 
1 1 1 1 1 1 1 1 1 
1 1 1 1 1 1 1 1 1 
1 1 1 1 1 1 1 1 1 
1 1 1 1 1 1 1 1 1 
1 1 1 1 1 1 1 1 1 
1 1 1 1 1 1 1 1 1 
1 1 1 1 1 1 1 1 1 
1 1 1 1 1 1 1 1 1 
1 1 1 1 1 1 1 1 1 
1 1 1 1 1 1 1 1 1 
1 1 1 1 1 1 1 1 1 
1 1 1 1 1 1 1 1 1 
1 1 1 1 1 1 1 1 1 
1 1 1 1 1 1 1 1 1 
1 1 1 1 1 1 1 1 1 
1 1 1 1 1 1 1 1 1 
1 1 1 1 1 1 1 1 1 
1 1 1 1 1 1 1 1 1 
1 1 1 1 1 1 1 1 1 
1 1 1 1 1 1 1 1 1 
1 1 1 1 1 1 1 1 1 
1 1 1 1 1 1 1 1 1 
1 1 1 1 1 1 1 1 1 
1 1 1 1 1 1 1 1 1 
1 1 1 1 1 1 1 1 1 
1 1 1 1 1 1 1 1 1 
1 1 1 1 1 1 1 1 1 
1 1 1 1 1 1 1 1 1 
1 1 1 1 1 1 1 1 1 
1 1 1 1 1 1 1 1 1 
1 1 1 1 1 1 1 1 1 
1 1 1 1 1 1 1 1 1 
1 1 1 1 1 1 1 1 1 
1 1 1 1 1 1 1 1 1 
1 1 1 1 1 1 1 1 1 
1 1 1 1 1 1 1 1 1 
1 1 1 1 1 1 1 1 1 
1 1 1 1 1 1 1 1 1 
1 1 1 1 1 1 1 1 1 
1 1 1 1 1 1 1 1 1 
1 1 1 1 1 1 1 1 1 
1 1 1 1 1 1 1 1 1 
1 1 1 1 1 1 1 1 1 
1 1 1 1 1 1 1 1 1 
1 1 1 1 1 1 1 1 1 
1 1 1 1 1 1 1 1 1 
1 1 1 1 1 1 1 1 1 
1 1 1 1 1 1 1 1 1 
1 1 1 1 1 1 1 1 1 
1 1 1 1 1 1 1 1 1 
1 1 1 1 1 1 1 1 1 
1 1 1 1 1 1 1 1 1 
1 1 1 1 1 1 1 1 1 
1 1 1 1 1 1 1 1 1 
1 1 1 1 1 1 1 1 1 
1 1 1 1 1 1 1 1 1 
1 1 1 1 1 1 1 1 1 
1 1 1 1 1 1 1 1 1 
1 1 1 1 1 1 1 1 1 
1 1 1 1 1 1 1 1 1 
1 1 1 1 1 1 1 1 1 
1 1 1 1 1 1 1 1 1 
1 1 1 1 1 1 1 1 1 
1 1 1 1 1 1 1 1 1 
1 1 1 1 1 1 1 1 1 
1 1 1 1 1 1 1 1 1 
1 1 1 1 1 1 1 1 1 
1 1 1 1 1 1 1 1 1 
1 1 1 1 1 1 1 1 1 
1 1 1 1 1 1 1 1 1 
1 1 1 1 1 1 1 1 1 
1 1 1 1 1 1 1 1 1 
1 1 1 1 1 1 1 1 1 
1 1 1 1 1 1 1 1 1 
1 1 1 1 1 1 1 1 1 
1 1 1 1 1 1 1 1 1 
1 1 1 1 1 1 1 1 1 
1 1 1 1 1 1 1 1 1 
1 1 1 1 1 1 1 1 1 
1 1 1 1 1 1 1 1 1 
1 1 1 1 1 1 1 1 1 
1 1 1 1 1 1 1 1 1 
1 1 1 1 1 1 1 1 1 
1 1 1 1 1 1 1 1 1 
1 1 1 1 1 1 1 1 1 
1 1 1 1 1 1 1 1 1 
1 1 1 1 1 1 1 1 1 
1 1 1 1 1 1 1 1 1 
1 1 1 1 1 1 1 1 1 
1 1 1 1 1 1 1 1 1 
1 1 1 1 1 1 1 1 1 
1 1 1 1 1 1 1 1 1 
1 1 1 1 1 1 1 1 1 
1 1 1 1 1 1 1 1 1 
1 1 1 1 1 1 1 1 1 
1 1 1 1 1 1 1 1 1 
1 1 1 1 1 1 1 1 1 
1 1 1 1 1 1 1 1 1 
1 1 1 1 1 1 1 1 1 
1 1 1 1 1 1 1 1 1 
1 1 1 1 1 1 1 1 1 
1 1 1 1 1 1 1 1 1 
1 1 1 1 1 1 1 1 1 
1 1 1 1 1 1 1 1 1 
1 1 1 1 1 1 1 1 1 
1 1 1 1 1 1 1 1 1 
1 1 1 1 1 1 1 1 1 
1 1 1 1 1 1 1 1 1 
1 1 1 1 1 1 1 1 1 
1 1 1 1 1 1 1 1 1 
1 1 1 1 1 1 1 1 1 
1 1 1 1 1 1 1 1 1 
1 1 1 1 1 1 1 1 1 
1 1 1 1 1 1 1 1 1 
1 1 1 1 1 1 1 1 1 
1 1 1 1 1 1 1 1 1 
1 1 1 1 1 1 1 1 1 
1 1 1 1 1 1 1 1 1 
1 1 1 1 1 1 1 1 1 
1 1 1 1 1 1 1 1 1 
1 1 1 1 1 1 1 1 1 
1 1 1 1 1 1 1 1 1 
1 1 1 1 1 1 1 1 1 
1 1 1 1 1 1 1 1 1 
1 1 1 1 1 1 1 1 1 
1 1 1 1 1 1 1 1 1 
1 1 1 1 1 1 1 1 1 
1 1 1 1 1 1 1 1 1 
1 1 1 1 1 1 1 1 1 
1 1 1 1 1 1 1 1 1 
1 1 1 1 1 1 1 1 1 
1 1 1 1 1 1 1 1 1 
1 1 1 1 1 1 1 1 1 
1 1 1 1 1 1 1 1 1 
1 1 1 1 1 1 1 1 1 
1 1 1 1 1 1 1 1 1 
1 1 1 1 1 1 1 1 1 
1 1 1 1 1 1 1 1 1 
1 1 1 1 1 1 1 1 1 
1 1 1 1 1 1 1 1 1 
1 1 1 1 1 1 1 1 1 
1 1 1 1 1 1 1 1 1 
1 1 1 1 1 1 1 1 1 
1 1 1 1 1 1 1 1 1 
1 1 1 1 1 1 1 1 1 
1 1 1 1 1 1 1 1 1 
1 1 1 1 1 1 1 1 1 
1 1 1 1 1 1 1 1 1 
1 1 1 1 1 1 1 1 1 
1 1 1 1 1 1 1 1 1 
1 1 1 1 1 1 1 1 1 
1 1 1 1 1 1 1 1 1 
1 1 1 1 1 1 1 1 1 
1 1 1 1 1 1 1 1 1 
1 1 1 1 1 1 1 1 1 
1 1 1 1 1 1 1 1 1 
1 1 1 1 1 1 1 1 1 
1 1 1 1 1 1 1 1 1 
1 1 1 1 1 1 1 1 1 
1 1 1 1 1 1 1 1 1 
1 1 1 1 1 1 1 1 1 
1 
NORMALS normals float
-0.010203 -0.010203 -0.999896 -0.010203 -0.999896 -0.010203 -0.707088 -0.00721519 -0.707088 
0.010203 -0.010203 -0.999896 0.010203 -0.999896 -0.010203 0.999896 -0.010203 -0.010203 
-0.0102036 0 -0.999948 -0.707107 0 -0.707107 0.0102036 0 -0.999948 
0.999948 0 -0.0102036 -0.0102036 0 -0.999948 -0.707107 0 -0.707107 
0.0102036 0 -0.999948 0.999948 0 -0.0102036 -0.010203 0.010203 -0.999896 
-0.707088 0.00721519 -0.707088 0.010203 0.010203 -0.999896 0.581277 -0.569415 -0.581277 
-0.010203 0.999896 -0.010203 -0.569415 0.581277 -0.581277 0.569415 -0.581277 -0.581277 
-0.581277 0.569415 -0.581277 -0.010203 -0.010203 -0.999896 0.0102036 0 -0.999948 
0.0103082 -0.999894 -0.0103082 0.999948 0 -0.0102036 0 0.0102036 -0.999948 
-0.703453 0.00725209 -0.710705 0.573403 0.579314 -0.579314 0.579314 0.573403 -0.579314 
0 0.999948 -0.0102036 -0.707088 -0.00721519 -0.707088 -0.00721519 -0.707088 -0.707088 
-0.707088 -0.00721519 -0.707088 0 -1 0 0.0102036 -0.999948 0 
0.999948 -0.0102036 0 -0.707107 0 -0.707107 -0.707107 0 -0.707107 
1 0 0 -0.707107 0 -0.707107 -0.707107 0 -0.707107 
0.581298 -0.575366 -0.575366 -0.707088 0.00721519 -0.707088 -0.707088 0.00721519 -0.707088 
0.57735 -0.57735 -0.57735 0.57735 -0.57735 -0.57735 0.57735 -0.57735 -0.57735 
-0.00721519 0.707088 -0.707088 -0.575366 0.581298 -0.575366 -0.579314 0.573403 -0.579314 
-0.579314 0.573403 -0.579314 0.579314 -0.579314 -0.573403 0.579314 -0.579314 -0.573403 
-0.707088 0.00721519 -0.707088 -0.707088 0.00721519 -0.707088 0.573403 0.579314 -0.579314 
0.579314 -0.573403 -0.579314 0.0102036 0 -0.999948 0.707107 0 -0.707107 
-0.00721519 0.707088 -0.707088 0 0.710724 -0.703471 0 0.707107 -0.707107 
0.00725209 0.703453 -0.710705 0 -0.707107 -0.707107 0 -0.707107 -0.707107 
-0.573403 -0.579314 -0.579314 0.573403 -0.579314 -0.579314 -0.707088 -0.00721519 -0.707088 
-0.57735 -0.57735 -0.57735 -0.707088 -0.00721519 -0.707088 0.575366 -0.581298 -0.575366 
0.0102036 -0.999948 0 0.999948 -0.0102036 0 -0.707107 0 -0.707107 
-0.707107 0 -0.707107 0.581298 -0.575366 -0.575366 -0.707107 0 -0.707107 
-0.707107 0 -0.707107 0.573403 -0.579314 -0.579314 0.573403 -0.579314 -0.579314 
0.010203 -0.010203 -0.999896 0.010203 -0.999896 -0.010203 0.999896 -0.010203 -0.010203 
-0.707107 0 -0.707107 -0.707107 0 -0.707107 0.579314 -0.573403 -0.579314 
0.579314 -0.573403 -0.579314 -0.0102036 0 -0.999948 -0.707107 0 -0.707107 
0 0.703471 -0.710724 -0.575366 0.575366 -0.581298 0.573403 -0.579314 -0.579314 
0.573403 -0.579314 -0.579314 0.010203 -0.010203 -0.999896 0.010203 -0.999896 -0.010203 
0.999896 -0.010203 -0.010203 -0.010203 0.010203 -0.999896 -0.707088 0.00721519 -0.707088 
0 0.0102036 -0.999948 -0.703471 0 -0.710724 0.707107 0 -0.707107 
0.710705 -0.703453 -0.00725209 -0.010203 0.999896 -0.010203 -0.573403 0.579314 -0.579314 
-0.579314 0.573403 -0.579314 -0.0102036 0 -0.999948 0 0.703471 -0.710724 
0 0.703471 -0.710724 0 0.703471 -0.710724 0 0.703471 -0.710724 
0 0 -1 0.703453 -0.710705 -0.00725209 0 -0.0102036 -0.999948 
0.0102036 0 -0.999948 0.0103082 -0.999894 -0.0103082 0.999948 0 -0.0102036 
-0.010203 0.010203 -0.999896 -0.707088 0.00721519 -0.707088 0 0.0102036 -0.999948 
0 0.0102036 -0.999948 0 0.0102036 -0.999948 0 0.0102036 -0.999948 
0 0.0102036 -0.999948 0.010203 0.010203 -0.999896 0.707088 0.707088 -0.00721519 
0.710705 0.703453 -0.00725209 -0.010203 0.999896 -0.010203 0 0.999948 -0.0102036 
0 0.999948 -0.0102036 0 0.999948 -0.0102036 0 0.999948 -0.0102036 
0 0.999948 -0.0102036 0.010203 0.999896 -0.010203 0 -0.0102036 -0.999948 
0 -0.707107 -0.707107 -0.703453 -0.00725209 -0.710705 0.999894 -0.0103082 -0.0103082 
0 -0.703471 -0.710724 -0.575366 -0.575366 -0.581298 0.575366 -0.575366 -0.581298 
-0.010203 -0.010203 -0.999896 -0.00721519 -0.707088 -0.707088 -0.707088 -0.00721519 -0.707088 
-0.573403 -0.579314 -0.579314 -0.573403 -0.579314 -0.579314 0.57735 -0.57735 -0.57735 
0.57735 -0.57735 -0.57735 0.57735 -0.57735 -0.57735 -0.707107 0 -0.707107 
-0.707107 0 -0.707107 0.579314 -0.579314 -0.573403 0.579314 -0.579314 -0.573403 
-0.707107 0 -0.707107 -0.707107 0 -0.707107 0.57735 -0.57735 -0.57735 
0.57735 -0.57735 -0.57735 0.57735 -0.57735 -0.57735 -0.707107 0 -0.707107 
-0.707107 0 -0.707107 0.579314 -0.579314 -0.573403 0.579314 -0.579314 -0.573403 
-0.707107 0 -0.707107 -0.707107 0 -0.707107 0.57735 -0.57735 -0.57735 
0.57735 -0.57735 -0.57735 0.57735 -0.57735 -0.57735 -0.707107 0 -0.707107 
-0.707107 0 -0.707107 0.579314 -0.579314 -0.573403 0.999948 -0.0102036 0 
-0.707088 0.00721519 -0.707088 -0.707088 0.00721519 -0.707088 0.710724 -0.703471 0 
-0.00721519 0.707088 -0.707088 -0.575366 0.581298 -0.575366 -0.579314 0.573403 -0.579314 
-0.579314 0.573403 -0.579314 0.703471 -0.710724 0 0.0103087 -0.999947 0 
1 0 0 -0.707088 0.00721519 -0.707088 -0.707088 0.00721519 -0.707088 
0.707107 0.707107 0 0.710724 0.703471 0 -0.00721519 0.707088 -0.707088 
0 0.710724 -0.703471 0 0.710724 -0.703471 0 0.710724 -0.703471 
0 0.710724 -0.703471 0 0.710724 -0.703471 0 0.710724 -0.703471 
0.0102036 0.999948 0 -0.010203 -0.010203 -0.999896 -0.010203 -0.999896 -0.010203 
-0.707088 -0.00721519 -0.707088 0.010203 -0.010203 -0.999896 0.010203 -0.999896 -0.010203 
0.999896 -0.010203 -0.010203 -0.0102036 0 -0.999948 -0.707107 0 -0.707107 
0.0102036 0 -0.999948 0.999948 0 -0.0102036 -0.0102036 0 -0.999948 
-0.579314 -0.573403 -0.579314 0.00725209 -0.703453 -0.710705 0.999948 0 -0.0102036 
-0.010203 -0.010203 -0.999896 -0.57735 -0.57735 -0.57735 -0.57735 -0.57735 -0.57735 
-0.703471 0 -0.710724 0.581298 -0.575366 -0.575366 -0.010203 -0.010203 -0.999896 
-0.57735 -0.57735 -0.57735 -0.707088 -0.00721519 -0.707088 0 -0.703471 -0.710724 
-0.575366 -0.575366 -0.581298 0.573403 -0.579314 -0.579314 0.573403 -0.579314 -0.579314 
0.010203 -0.010203 -0.999896 0.010203 -0.999896 -0.010203 0.999896 -0.010203 -0.010203 
-0.707107 0 -0.707107 -0.707107 0 -0.707107 0.579314 -0.573403 -0.579314 
0.579314 -0.573403 -0.579314 -0.707107 0 -0.707107 -0.707107 0 -0.707107 
0.573403 -0.579314 -0.579314 0.573403 -0.579314 -0.579314 0.010203 -0.010203 -0.999896 
0.010203 -0.999896 -0.010203 0.999896 -0.010203 -0.010203 -0.707107 0 -0.707107 
-0.707107 0 -0.707107 0.579314 -0.573403 -0.579314 0.579314 -0.573403 -0.579314 
-0.707107 0 -0.707107 -0.707107 0 -0.707107 0.573403 -0.579314 -0.579314 
0.573403 -0.579314 -0.579314 0.010203 -0.010203 -0.999896 0.010203 -0.999896 -0.010203 
0.999896 -0.010203 -0.010203 -0.707107 0 -0.707107 -0.707107 0 -0.707107 
0.579314 -0.573403 -0.579314 0.999948 0 -0.0102036 -0.707107 0 -0.707107 
-0.707107 0 -0.707107 1 0 0 -0.707107 0 -0.707107 
-0.707107 0 -0.707107 0.710724 -0.703471 0 -0.0102036 0 -0.999948 
-0.707107 0 -0.707107 0 0.703471 -0.710724 -0.575366 0.575366 -0.581298 
0.703471 -0.710724 0 0.0103082 -0.999894 0.0103082 0.999948 0 0.0102036 
-0.010203 0.010203 -0.999896 -0.707088 0.00721519 -0.707088 0 0.0102036 -0.999948 
-0.703471 0 -0.710724 0.707088 0.707088 0.00721519 0.710705 0.703453 0.00725209 
-0.010203 0.999896 -0.010203 -0.573403 0.579314 -0.579314 -0.579314 0.573403 -0.579314 
-0.0102036 0 -0.999948 0 0.703471 -0.710724 0 0.703471 -0.710724 
0 0.703471 -0.710724 0 0.703471 -0.710724 0 0.703471 -0.710724 
0 0.703471 -0.710724 0.00725209 0.710705 -0.703453 0.707107 0.707107 0 
0.707088 0.707088 0.00721519 -0.010203 0.010203 -0.999896 -0.707088 0.00721519 -0.707088 
0 0.0102036 -0.999948 0 0.0102036 -0.999948 0 0.0102036 -0.999948 
0 0.0103087 -0.999947 0 0.0103087 -0.999947 0.0103082 0.0103082 -0.999894 
0.707107 0.707107 0 0.707107 0.707107 0 -0.010203 0.999896 -0.010203 
0 0.999948 -0.0102036 0 0.999948 -0.0102036 0 0.999948 -0.0102036 
0 1 0 0 1 0 0.0102036 0.999948 0 
0 -0.0102036 -0.999948 0 -0.707107 -0.707107 -0.703453 -0.00725209 -0.710705 
0.703453 -0.710705 -0.00725209 -0.707107 0 -0.707107 -0.707107 0 -0.707107 
0.703471 -0.710724 0 0.0102036 -0.999948 0 0.999948 -0.0102036 0 
-0.707107 0 -0.707107 -0.707107 0 -0.707107 1 0 0 
-0.579314 -0.573403 -0.579314 -0.579314 -0.573403 -0.579314 0.581298 -0.575366 -0.575366 
-0.010203 -0.010203 -0.999896 -0.00721519 -0.707088 -0.707088 -0.707088 -0.00721519 -0.707088 
-0.573403 -0.579314 -0.579314 -0.573403 -0.579314 -0.579314 0.57735 -0.57735 -0.57735 
0.57735 -0.57735 -0.57735 0.57735 -0.57735 -0.57735 -0.707107 0 -0.707107 
-0.707107 0 -0.707107 0.579314 -0.579314 -0.573403 0.579314 -0.579314 -0.573403 
-0.707107 0 -0.707107 -0.707107 0 -0.707107 0.57735 -0.57735 -0.57735 
0.57735 -0.57735 -0.57735 0.57735 -0.57735 -0.57735 -0.707107 0 -0.707107 
-0.707107 0 -0.707107 0.579314 -0.579314 -0.573403 0.579314 -0.579314 -0.573403 
-0.707107 0 -0.707107 -0.707107 0 -0.707107 0.57735 -0.57735 -0.57735 
0.57735 -0.57735 -0.57735 0.57735 -0.57735 -0.57735 -0.707107 0 -0.707107 
-0.707107 0 -0.707107 0.579314 -0.579314 -0.573403 0.999948 -0.0102036 0 
-0.707107 0 -0.707107 -0.707107 0 -0.707107 1 0 0 
-0.707107 0 -0.707107 -0.707107 0 -0.707107 1 0 0 
-0.707107 0 -0.707107 -0.707107 0 -0.707107 0.710705 -0.703453 0.00725209 
-0.707107 0 -0.707107 -0.707107 0 -0.707107 0.710705 -0.703453 0.00725209 
0.707107 0 0.707107 0.707107 0 0.707107 -0.707088 0.00721519 -0.707088 
-0.707088 0.00721519 -0.707088 0.575366 0.575366 0.581298 0.579314 0.573403 0.579314 
0.573403 0.579314 0.579314 0.00725209 0.703453 0.710705 0.00721519 0.707088 0.707088 
-0.00721519 0.707088 -0.707088 -0.575366 0.581298 -0.575366 -0.579314 0.573403 -0.579314 
-0.579314 0.573403 -0.579314 0.710705 0.00725209 0.703453 0.707088 0.00721519 0.707088 
-0.707088 0.00721519 -0.707088 -0.707088 0.00721519 -0.707088 0.575366 0.581298 0.575366 
0.57735 0.57735 0.57735 0.573403 0.579314 0.579314 0 0.707107 0.707107 
0 0.710724 0.703471 0.00721519 0.707088 0.707088 0.00725209 0.710705 0.703453 
-0.00721519 0.707088 -0.707088 0 0.710724 -0.703471 0 0.710724 -0.703471 
0 1 0 0.010203 0.999896 0.010203 -0.010203 -0.010203 -0.999896 
-0.010203 -0.999896 -0.010203 -0.707088 -0.00721519 -0.707088 0.010203 -0.010203 -0.999896 
0.010203 -0.999896 -0.010203 0.999896 -0.010203 -0.010203 -0.0102036 0 -0.999948 
-0.707107 0 -0.707107 0.0102036 0 -0.999948 0.710705 -0.703453 -0.00725209 
-0.0102036 0 -0.999948 -0.707107 0 -0.707107 0 0 -1 
0.703453 -0.710705 -0.00725209 0 -0.0102036 -0.999948 0.00721519 -0.707088 -0.707088 
0.010203 -0.999896 -0.010203 0.999896 -0.010203 -0.010203 -0.0102036 0 -0.999948 
-0.707107 0 -0.707107 0 0 -1 -0.703471 0 -0.710724 
0.581298 -0.575366 -0.575366 -0.0102036 0 -0.999948 -0.707107 0 -0.707107 
0 0 -1 -0.703471 0 -0.710724 0.575366 -0.581298 -0.575366 
0.0102036 -0.999948 0 0.999948 -0.0102036 0 -0.0102036 0 -0.999948 
-0.707107 0 -0.707107 0 0 -1 -0.703471 0 -0.710724 
0.581298 -0.575366 -0.575366 -0.0102036 0 -0.999948 -0.707107 0 -0.707107 
0 -0.703471 -0.710724 -0.575366 -0.575366 -0.581298 0.573403 -0.579314 -0.579314 
0.573403 -0.579314 -0.579314 0.010203 -0.010203 -0.999896 0.010203 -0.999896 -0.010203 
0.999896 -0.010203 -0.010203 -0.707107 0 -0.707107 -0.707107 0 -0.707107 
0.579314 -0.573403 -0.579314 0.579314 -0.573403 -0.579314 -0.707107 0 -0.707107 
-0.707107 0 -0.707107 0.573403 -0.579314 -0.579314 0.573403 -0.579314 -0.579314 
0.010203 -0.010203 -0.999896 0.010203 -0.999896 -0.010203 0.999896 -0.010203 -0.010203 
-0.707107 0 -0.707107 -0.707107 0 -0.707107 0.579314 -0.573403 -0.579314 
0.710705 -0.703453 -0.00725209 -0.707107 0 -0.707107 -0.707107 0 -0.707107 