# vtk DataFile Version 3.0
vtk output
ASCII
DATASET POLYDATA
POINTS 5060 float
127 75 108.016 127 74.0161 109 126.016 75 109 
128 75 108.016 128 74.0161 109 128.984 75 109 
127 75.9839 109 127.016 76 109 128 76 108.016 
128.984 76 109 128 77 108.016 127.016 77 109 
129 76.0161 109 129 77 108.016 130 77 108.016 
130 76.0161 109 130.984 77 109 142 77 108.016 
142 76.0161 109 141.016 77 109 143 77 108.016 
143 76.0161 109 144 77 108.016 144 76.0161 109 
145 77 108.016 145 76.0161 109 146 77 108.016 
146 76.0161 109 147 77 108.016 147 76.0161 109 
148 77 108.016 148 76.0161 109 149 77 108.016 
149 76.0161 109 150 77 108.016 150 76.0161 109 
150.984 77 109 128 77.9839 109 129 77.9839 109 
129.016 78 109 130 78 108.016 130.984 78 109 
142 78 108.016 141.016 78 109 142.984 78 109 
143 77.9839 109 144 77.9839 109 145 77.9839 109 
146 77.9839 109 147 77.9839 109 148 77.9839 109 
149 77.9839 109 150 77.9839 109 130 79 108.016 
129.016 79 109 130.984 79 109 134 79 108.016 
134 78.0161 109 133.016 79 109 135 79 108.016 
135 78.0161 109 136 79 108.016 136 78.0161 109 
137 79 108.016 137 78.0161 109 138 79 108.016 
138 78.0161 109 139 79 108.016 139 78.0161 109 
140 79 108.016 140 78.0161 109 141 79 108.016 
141 78.0161 109 142 79 108.016 142.984 79 109 
130 80 108.016 129.016 80 109 130.984 80 109 
134 80 108.016 133.016 80 109 134.984 80 109 
135 79.9839 109 136 79.9839 109 137 79.9839 109 
138 79.9839 109 139 79.9839 109 140 79.9839 109 
141 79.9839 109 142 79.9839 109 130 80.9839 109 
132 81 108.016 132 80.0161 109 131.016 81 109 
133 81 108.016 133 80.0161 109 134 81 108.016 
134.984 81 109 132 82 108.016 131.016 82 109 
132.984 82 109 133 81.9839 109 134 81.9839 109 
132 83 108.016 131.016 83 109 132.984 83 109 
132 83.9839 109 145 62 109.016 145 61.0161 110 
144.016 62 110 146 62 109.016 146 61.0161 110 
146.984 62 110 144 63 109.016 144 62.0161 110 
143.016 63 110 145 63 109.016 146 63 109.016 
146.984 63 110 143 64 109.016 143 63.0161 110 
142.016 64 110 144 64 109.016 145 64 109.016 
146 64 109.016 146.984 64 110 142 65 109.016 
142 64.0161 110 141.016 65 110 143 65 109.016 
144 65 109.016 145 65 109.016 146 65 109.016 
146.984 65 110 141 66 109.016 141 65.0161 110 
140.016 66 110 142 66 109.016 143 66 109.016 
144 66 109.016 145 66 109.016 146 66 109.016 
147 65.0161 110 147 66 109.016 148 66 109.016 
148 65.0161 110 148.984 66 110 141 67 109.016 
140.016 67 110 142 67 109.016 143 67 109.016 
144 67 109.016 145 67 109.016 146 67 109.016 
147 67 109.016 148 67 109.016 148.984 67 110 
141 68 109.016 140.016 68 110 142 68 109.016 
143 68 109.016 144 68 109.016 145 68 109.016 
146 68 109.016 147 68 109.016 148 68 109.016 
149 67.0161 110 149 68 109.016 150 68 109.016 
150 67.0161 110 150.984 68 110 141 69 109.016 
140.016 69 110 142 69 109.016 143 69 109.016 
144 69 109.016 145 69 109.016 146 69 109.016 
147 69 109.016 148 69 109.016 149 69 109.016 
150 69 109.016 150.984 69 110 141 69.9839 110 
142 69.9839 110 142.016 70 110 143 70 109.016 
144 70 109.016 145 70 109.016 146 70 109.016 
147 70 109.016 148 70 109.016 149 70 109.016 
150 70 109.016 150.984 70 110 142 71 109.016 
142 70.0161 110 141.016 71 110 143 71 109.016 
144 71 109.016 145 71 109.016 146 71 109.016 
147 71 109.016 148 71 109.016 149 71 109.016 
150 71 109.016 150.984 71 110 129 72 109.016 
129 71.0161 110 128.016 72 110 130 72 109.016 
130 71.0161 110 131 72 109.016 131 71.0161 110 
132 72 109.016 132 71.0161 110 133 72 109.016 
133 71.0161 110 134 72 109.016 134 71.0161 110 
134.984 72 110 141 72 109.016 141 71.0161 110 
140.016 72 110 142 72 109.016 143 72 109.016 
144 72 109.016 145 72 109.016 146 72 109.016 
147 72 109.016 148 72 109.016 149 72 109.016 
150 72 109.016 151 71.0161 110 151 72 109.016 
152 72 109.016 152 71.0161 110 152.984 72 110 
128 73 109.016 128 72.0161 110 127.016 73 110 
129 73 109.016 130 73 109.016 131 73 109.016 
132 73 109.016 133 73 109.016 134 73 109.016 
134.984 73 110 140 73 109.016 140 72.0161 110 
139.016 73 110 141 73 109.016 142 73 109.016 
143 73 109.016 144 73 109.016 145 73 109.016 
146 73 109.016 147 73 109.016 148 73 109.016 
149 73 109.016 150 73 109.016 151 73 109.016 
152 73 109.016 152.984 73 110 127 74 109.016 
127 73.0161 110 126.016 74 110 128 74 109.016 
129 74 109.016 130 74 109.016 131 74 109.016 
132 74 109.016 133 74 109.016 134 74 109.016 
135 73.0161 110 135 74 109.016 136 74 109.016 
136 73.0161 110 137 74 109.016 137 73.0161 110 
138 74 109.016 138 73.0161 110 139 74 109.016 
139 73.0161 110 140 74 109.016 141 74 109.016 
142 74 109.016 143 74 109.016 144 74 109.016 
145 74 109.016 146 74 109.016 147 74 109.016 
148 74 109.016 149 74 109.016 150 74 109.016 
151 74 109.016 152 74 109.016 152.984 74 110 
126.016 75 110 129 75 109.016 130 75 109.016 
131 75 109.016 132 75 109.016 133 75 109.016 
134 75 109.016 135 75 109.016 136 75 109.016 
137 75 109.016 138 75 109.016 139 75 109.016 
140 75 109.016 141 75 109.016 142 75 109.016 
143 75 109.016 144 75 109.016 145 75 109.016 
146 75 109.016 147 75 109.016 148 75 109.016 
149 75 109.016 150 75 109.016 151 75 109.016 
152 75 109.016 152.984 75 110 127 76 109.016 
126.016 76 110 129 76 109.016 130 76 109.016 
131 76 109.016 132 76 109.016 133 76 109.016 
134 76 109.016 135 76 109.016 136 76 109.016 
137 76 109.016 138 76 109.016 139 76 109.016 
140 76 109.016 141 76 109.016 142 76 109.016 
143 76 109.016 144 76 109.016 145 76 109.016 
146 76 109.016 147 76 109.016 148 76 109.016 
149 76 109.016 150 76 109.016 151 76 109.016 
152 76 109.016 152.984 76 110 126 77 109.016 
126 76.0161 110 125.016 77 110 127 77 109.016 
131 77 109.016 132 77 109.016 133 77 109.016 
134 77 109.016 135 77 109.016 136 77 109.016 
137 77 109.016 138 77 109.016 139 77 109.016 
140 77 109.016 141 77 109.016 151 77 109.016 
151.984 77 110 152 76.9839 110 125 78 109.016 
125 77.0161 110 124.016 78 110 126 78 109.016 
127 78 109.016 128 78 109.016 129 78 109.016 
131 78 109.016 132 78 109.016 133 78 109.016 
134 78 109.016 135 78 109.016 136 78 109.016 
137 78 109.016 138 78 109.016 139 78 109.016 
140 78 109.016 141 78 109.016 143 78 109.016 
144 78 109.016 145 78 109.016 146 78 109.016 
147 78 109.016 148 78 109.016 149 78 109.016 
150 78 109.016 150.984 78 110 151 77.9839 110 
125 79 109.016 124.016 79 110 126 79 109.016 
127 79 109.016 128 79 109.016 129 79 109.016 
131 79 109.016 132 79 109.016 133 79 109.016 
143 79 109.016 144 79 109.016 145 79 109.016 
146 79 109.016 147 79 109.016 148 79 109.016 
149 79 109.016 149.984 79 110 150 78.9839 110 
125 79.9839 110 126 79.9839 110 126.016 80 110 
127 80 109.016 128 80 109.016 129 80 109.016 
131 80 109.016 132 80 109.016 133 80 109.016 
135 80 109.016 136 80 109.016 137 80 109.016 
138 80 109.016 139 80 109.016 140 80 109.016 
141 80 109.016 142 80 109.016 143 80 109.016 
144 80 109.016 145 80 109.016 146 80 109.016 
147 80 109.016 148 80 109.016 148.984 80 110 
149 79.9839 110 127 81 109.016 126.016 81 110 
128 81 109.016 129 81 109.016 130 81 109.016 
131 81 109.016 135 81 109.016 136 81 109.016 
137 81 109.016 138 81 109.016 139 81 109.016 
140 81 109.016 141 81 109.016 142 81 109.016 
143 81 109.016 144 81 109.016 145 81 109.016 
146 81 109.016 147 81 109.016 147.984 81 110 
148 80.9839 110 127 81.9839 110 128 81.9839 110 
129 81.9839 110 130 81.9839 110 130.016 82 110 
131 82 109.016 133 82 109.016 134 82 109.016 
135 82 109.016 136 82 109.016 137 82 109.016 
138 82 109.016 139 82 109.016 140 82 109.016 
140.984 82 110 141 81.9839 110 142 81.9839 110 
143 81.9839 110 144 81.9839 110 145 81.9839 110 
146 81.9839 110 147 81.9839 110 131 83 109.016 
130.016 83 110 133 83 109.016 134 83 109.016 
135 83 109.016 136 83 109.016 137 83 109.016 
138 83 109.016 139 83 109.016 139.984 83 110 
140 82.9839 110 131 83.9839 110 132 83.9839 110 
133 84 109.016 132.016 84 110 134 84 109.016 
134.984 84 110 135 83.9839 110 136 83.9839 110 
137 83.9839 110 138 83.9839 110 139 83.9839 110 
133 85 109.016 132.016 85 110 133.984 85 110 
134 84.9839 110 133 85.9839 110 145 61.0161 111 
144.016 62 111 146 61.0161 111 146.984 62 111 
144 62.0161 111 143.016 63 111 146.984 63 111 
143 63.0161 111 142.016 64 111 146.984 64 111 
142 64.0161 111 141.016 65 111 147 64.0161 111 
147 65 110.016 147.984 65 111 141 65.0161 111 
140.016 66 111 148 65.0161 111 148.984 66 111 
140.016 67 111 148.984 67 111 140.016 68 111 
149 67.0161 111 150 67.0161 111 150.984 68 111 
140.016 69 111 150.984 69 111 141 69.9839 111 
142 70 110.016 141.016 70 111 150.984 70 111 
141 71 110.016 141 70.0161 111 140.016 71 111 
150.984 71 111 128 72 110.016 128 71.0161 111 
127.016 72 111 129 71.0161 111 130 71.0161 111 
131 71.0161 111 132 71.0161 111 133 71.0161 111 
134 71.0161 111 134.984 72 111 140 72 110.016 
140 71.0161 111 139.016 72 111 151 71.0161 111 
152 71.0161 111 152.984 72 111 126 73 110.016 
126 72.0161 111 125.016 73 111 127 73 110.016 
127 72.0161 111 135 72.0161 111 135 73 110.016 
136 73 110.016 136 72.0161 111 137 73 110.016 
137 72.0161 111 138 73 110.016 138 72.0161 111 
139 73 110.016 139 72.0161 111 152.984 73 111 
126 74 110.016 125.016 74 111 152.984 74 111 
126 75 110.016 125.016 75 111 152.984 75 111 
126 76 110.016 125.016 76 111 152.984 76 111 
124 77 110.016 124 76.0161 111 123.016 77 111 
125 77 110.016 125 76.0161 111 151.984 77 111 
152 76.9839 111 124 78 110.016 123.016 78 111 
150.984 78 111 151 77.9839 111 123 79 110.016 
123 78.0161 111 122.016 79 111 124 79 110.016 
149.984 79 111 150 78.9839 111 123 79.9839 111 
124 79.9839 111 125 79.9839 111 126 80 110.016 
125.016 80 111 148.984 80 111 149 79.9839 111 
126 80.9839 111 126.016 81 111 147.984 81 111 
148 80.9839 111 127 81.9839 111 128 81.9839 111 
129 81.9839 111 130 82 110.016 129.016 82 111 
140.984 82 111 141 81.9839 111 142 81.9839 111 
143 81.9839 111 144 81.9839 111 145 81.9839 111 
146 81.9839 111 147 81.9839 111 130 83 110.016 
129.016 83 111 139.984 83 111 140 82.9839 111 
130 83.9839 111 131 83.9839 111 132 84 110.016 
131.016 84 111 134.984 84 111 135 83.9839 111 
[...]
POINT_DATA 5060
SCALARS scalars float
LOOKUP_TABLE default
1 1 1 1 1 1 1 1 1 
1 1 1 1 1 1 1 1 1 
1 1 1 1 1 1 1 1 1 
1 1 1 1 1 1 1 1 1 
1 1 1 1 1 1 1 1 1 
1 1 1 1 1 1 1 1 1 
1 1 1 1 1 1 1 1 1 
1 1 1 1 1 1 1 1 1 
1 1 1 1 1 1 1 1 1 
1 1 1 1 1 1 1 1 1 
1 1 1 1 1 1 1 1 1 
1 1 1 1 1 1 1 1 1 
1 1 1 1 1 1 1 1 1 
1 1 1 1 1 1 1 1 1 
1 1 1 1 1 1 1 1 1 
1 1 1 1 1 1 1 1 1 
1 1 1 1 1 1 1 1 1 
1 1 1 1 1 1 1 1 1 
1 1 1 1 1 1 1 1 1 
1 1 1 1 1 1 1 1 1 
1 1 1 1 1 1 1 1 1 
1 1 1 1 1 1 1 1 1 
1 1 1 1 1 1 1 1 1 
1 1 1 1 1 1 1 1 1 
1 1 1 1 1 1 1 1 1 
1 1 1 1 1 1 1 1 1 
1 1 1 1 1 1 1 1 1 
1 1 1 1 1 1 1 1 1 
1 1 1 1 1 1 1 1 1 
1 1 1 1 1 1 1 1 1 
1 1 1 1 1 1 1 1 1 
1 1 1 1 1 1 1 1 1 
1 1 1 1 1 1 1 1 1 
1 1 1 1 1 1 1 1 1 
1 1 1 1 1 1 1 1 1 
1 1 1 1 1 1 1 1 1 
1 1 1 1 1 1 1 1 1 
1 1 1 1 1 1 1 1 1 
1 1 1 1 1 1 1 1 1 
1 1 1 1 1 1 1 1 1 
1 1 1 1 1 1 1 1 1 
1 1 1 1 1 1 1 1 1 
1 1 1 1 1 1 1 1 1 
1 1 1 1 1 1 1 1 1 
1 1 1 1 1 1 1 1 1 
1 1 1 1 1 1 1 1 1 
1 1 1 1 1 1 1 1 1 
1 1 1 1 1 1 1 1 1 
1 1 1 1 1 1 1 1 1 
1 1 1 1 1 1 1 1 1 
1 1 1 1 1 1 1 1 1 
1 1 1 1 1 1 1 1 1 
1 1 1 1 1 1 1 1 1 
1 1 1 1 1 1 1 1 1 
1 1 1 1 1 1 1 1 1 
1 1 1 1 1 1 1 1 1 
1 1 1 1 1 1 1 1 1 
1 1 1 1 1 1 1 1 1 
1 1 1 1 1 1 1 1 1 
1 1 1 1 1 1 1 1 1 
1 1 1 1 1 1 1 1 1 
1 1 1 1 1 1 1 1 1 
1 1 1 1 1 1 1 1 1 
1 1 1 1 1 1 1 1 1 
1 1 1 1 1 1 1 1 1 
1 1 1 1 1 1 1 1 1 
1 1 1 1 1 1 1 1 1 
1 1 1 1 1 1 1 1 1 
1 1 1 1 1 1 1 1 1 
1 1 1 1 1 1 1 1 1 
1 1 1 1 1 1 1 1 1 
1 1 1 1 1 1 1 1 1 
1 1 1 1 1 1 1 1 1 
1 1 1 1 1 1 1 1 1 
1 1 1 1 1 1 1 1 1 
1 1 1 1 1 1 1 1 1 
1 1 1 1 1 1 1 1 1 
1 1 1 1 1 1 1 1 1 
1 1 1 1 1 1 1 1 1 
1 1 1 1 1 1 1 1 1 
1 1 1 1 1 1 1 1 1 
1 1 1 1 1 1 1 1 1 
1 1 1 1 1 1 1 1 1 
1 1 1 1 1 1 1 1 1 
1 1 1 1 1 1 1 1 1 
1 1 1 1 1 1 1 1 1 
1 1 1 1 1 1 1 1 1 
1 1 1 1 1 1 1 1 1 
1 1 1 1 1 1 1 1 1 
1 1 1 1 1 1 1 1 1 
1 1 1 1 1 1 1 1 1 
1 1 1 1 1 1 1 1 1 
1 1 1 1 1 1 1 1 1 
1 1 1 1 1 1 1 1 1 
1 1 1 1 1 1 1 1 1 
1 1 1 1 1 1 1 1 1 
1 1 1 1 1 1 1 1 1 
1 1 1 1 1 1 1 1 1 
1 1 1 1 1 1 1 1 1 
1 1 1 1 1 1 1 1 1 
1 1 1 1 1 1 1 1 1 
1 1 1 1 1 1 1 1 1 
1 1 1 1 1 1 1 1 1 
1 1 1 1 1 1 1 1 1 
1 1 1 1 1 1 1 1 1 
1 1 1 1 1 1 1 1 1 
1 1 1 1 1 1 1 1 1 
1 1 1 1 1 1 1 1 1 
1 1 1 1 1 1 1 1 1 
1 1 1 1 1 1 1 1 1 
1 1 1 1 1 1 1 1 1 
1 1 1 1 1 1 1 1 1 
1 1 1 1 1 1 1 1 1 
1 1 1 1 1 1 1 1 1 
1 1 1 1 1 1 1 1 1 
1 1 1 1 1 1 1 1 1 
1 1 1 1 1 1 1 1 1 
1 1 1 1 1 1 1 1 1 
1 1 1 1 1 1 1 1 1 
1 1 1 1 1 1 1 1 1 
1 1 1 1 1 1 1 1 1 
1 1 1 1 1 1 1 1 1 
1 1 1 1 1 1 1 1 1 
1 1 1 1 1 1 1 1 1 
1 1 1 1 1 1 1 1 1 
1 1 1 1 1 1 1 1 1 
1 1 1 1 1 1 1 1 1 
1 1 1 1 1 1 1 1 1 
1 1 1 1 1 1 1 1 1 
1 1 1 1 1 1 1 1 1 
1 1 1 1 1 1 1 1 1 
1 1 1 1 1 1 1 1 1 
1 1 1 1 1 1 1 1 1 
1 1 1 1 1 1 1 1 1 
1 1 1 1 1 1 1 1 1 
1 1 1 1 1 1 1 1 1 
1 1 1 1 1 1 1 1 1 
1 1 1 1 1 1 1 1 1 
1 1 1 1 1 1 1 1 1 
1 1 1 1 1 1 1 1 1 
1 1 1 1 1 1 1 1 1 
1 1 1 1 1 1 1 1 1 
1 1 1 1 1 1 1 1 1 
1 1 1 1 1 1 1 1 1 
1 1 1 1 1 1 1 1 1 
1 1 1 1 1 1 1 1 1 
1 1 1 1 1 1 1 1 1 
1 1 1 1 1 1 1 1 1 
1 1 1 1 1 1 1 1 1 
1 1 1 1 1 1 1 1 1 
1 1 1 1 1 1 1 1 1 
1 1 1 1 1 1 1 1 1 
1 1 1 1 1 1 1 1 1 
1 1 1 1 1 1 1 1 1 
1 1 1 1 1 1 1 1 1 
1 1 1 1 1 1 1 1 1 
1 1 1 1 1 1 1 1 1 
1 1 1 1 1 1 1 1 1 
1 1 1 1 1 1 1 1 1 
1 1 1 1 1 1 1 1 1 
1 1 1 1 1 1 1 1 1 
1 1 1 1 1 1 1 1 1 
1 1 1 1 1 1 1 1 1 
1 1 1 1 1 1 1 1 1 
1 1 1 1 1 1 1 1 1 
1 1 1 1 1 1 1 1 1 
1 1 1 1 1 1 1 1 1 
1 1 1 1 1 1 1 1 1 
1 1 1 1 1 1 1 1 1 
1 1 1 1 1 1 1 1 1 
1 1 1 1 1 1 1 1 1 
1 1 1 1 1 1 1 1 1 
1 1 1 1 1 1 1 1 1 
1 1 1 1 1 1 1 1 1 
1 1 1 1 1 1 1 1 1 
1 1 1 1 1 1 1 1 1 
1 1 1 1 1 1 1 1 1 
1 1 1 1 1 1 1 1 1 
1 1 1 1 1 1 1 1 1 
1 1 1 1 1 1 1 1 1 
1 1 1 1 1 1 1 1 1 
1 1 1 1 1 1 1 1 1 
1 1 1 1 1 1 1 1 1 
1 1 1 1 1 1 1 1 1 
1 1 1 1 1 1 1 1 1 
1 1 1 1 1 1 1 1 1 
1 1 1 1 1 1 1 1 1 
1 1 1 1 1 1 1 1 1 
1 1 1 1 1 1 1 1 1 
1 1 1 1 1 1 1 1 1 
1 1 1 1 1 1 1 1 1 
1 1 1 1 1 1 1 1 1 
1 1 1 1 1 1 1 1 1 
1 1 1 1 1 1 1 1 1 
1 1 1 1 1 1 1 1 1 
1 1 1 1 1 1 1 1 1 
1 1 1 1 1 1 1 1 1 
1 1 1 1 1 1 1 1 1 
1 1 1 1 1 1 1 1 1 
1 1 1 1 1 1 1 1 1 
1 1 1 1 1 1 1 1 1 
1 1 1 1 1 1 1 1 1 
1 1 1 1 1 1 1 1 1 
1 1 1 1 1 1 1 1 1 
1 1 1 1 1 1 1 1 1 
1 1 1 1 1 1 1 1 1 
1 1 1 1 1 1 1 1 1 
1 1 1 1 1 1 1 1 1 
1 1 1 1 1 1 1 1 1 
1 1 1 1 1 1 1 1 1 
1 1 1 1 1 1 1 1 1 
1 1 1 1 1 1 1 1 1 
1 1 1 1 1 1 1 1 1 
1 1 1 1 1 1 1 1 1 
1 1 1 1 1 1 1 1 1 
1 1 1 1 1 1 1 1 1 
1 1 1 1 1 1 1 1 1 
1 1 1 1 1 1 1 1 1 
1 1 1 1 1 1 1 1 1 
1 1 1 1 1 1 1 1 1 
1 1 1 1 1 1 1 1 1 
1 1 1 1 1 1 1 1 1 
1 1 1 1 1 1 1 1 1 
1 1 1 1 1 1 1 1 1 
1 1 1 1 1 1 1 1 1 
1 1 1 1 1 1 1 1 1 
1 1 1 1 1 1 1 1 1 
1 1 1 1 1 1 1 1 1 
1 1 1 1 1 1 1 1 1 
1 1 1 1 1 1 1 1 1 
1 1 1 1 1 1 1 1 1 
1 1 1 1 1 1 1 1 1 
1 1 1 1 1 1 1 1 1 
1 1 1 1 1 1 1 1 1 
1 1 1 1 1 1 1 1 1 
1 1 1 1 1 1 1 1 1 
1 1 1 1 1 1 1 1 1 
1 1 1 1 1 1 1 1 1 
1 1 1 1 1 1 1 1 1 
1 1 1 1 1 1 1 1 1 
1 1 1 1 1 1 1 1 1 
1 1 1 1 1 1 1 1 1 
1 1 1 1 1 1 1 1 1 
1 1 1 1 1 1 1 1 1 
1 1 1 1 1 1 1 1 1 
1 1 1 1 1 1 1 1 1 
1 1 1 1 1 1 1 1 1 
1 1 1 1 1 1 1 1 1 
1 1 1 1 1 1 1 1 1 
1 1 1 1 1 1 1 1 1 
1 1 1 1 1 1 1 1 1 
1 1 1 1 1 1 1 1 1 
1 1 1 1 1 1 1 1 1 
1 1 1 1 1 1 1 1 1 
1 1 1 1 1 1 1 1 1 
1 1 1 1 1 1 1 1 1 
1 1 1 1 1 1 1 1 1 
1 1 1 1 1 1 1 1 1 
1 1 1 1 1 1 1 1 1 
1 1 1 1 1 1 1 1 1 
1 1 1 1 1 1 1 1 1 
1 1 1 1 1 1 1 1 1 
1 1 1 1 1 1 1 1 1 
1 1 1 1 1 1 1 1 1 
1 1 1 1 1 1 1 1 1 
1 1 1 1 1 1 1 1 1 
1 1 1 1 1 1 1 1 1 
1 1 1 1 1 1 1 1 1 
1 1 1 1 1 1 1 1 1 
1 1 1 1 1 1 1 1 1 
1 1 1 1 1 1 1 1 1 
1 1 1 1 1 1 1 1 1 
1 1 1 1 1 1 1 1 1 
1 1 1 1 1 1 1 1 1 
1 1 1 1 1 1 1 1 1 
1 1 1 1 1 1 1 1 1 
1 1 1 1 1 1 1 1 1 
1 1 1 1 1 1 1 1 1 
1 1 1 1 1 1 1 1 1 
1 1 1 1 1 1 1 1 1 
1 1 1 1 1 1 1 1 1 
1 1 1 1 1 1 1 1 1 
1 1 1 1 1 1 1 1 1 
1 1 1 1 1 1 1 1 1 
1 1 1 1 1 1 1 1 1 
1 1 1 1 1 1 1 1 1 
1 1 1 1 1 1 1 1 1 
1 1 1 1 1 1 1 1 1 
1 1 1 1 1 1 1 1 1 
1 1 1 1 1 1 1 1 1 
1 1 1 1 1 1 1 1 1 
1 1 1 1 1 1 1 1 1 
1 1 1 1 1 1 1 1 1 
1 1 1 1 1 1 1 1 1 
1 1 1 1 1 1 1 1 1 
1 1 1 1 1 1 1 1 1 
1 1 1 1 1 1 1 1 1 
1 1 1 1 1 1 1 1 1 
1 1 1 1 1 1 1 1 1 
1 1 1 1 1 1 1 1 1 
1 1 1 1 1 1 1 1 1 
1 1 1 1 1 1 1 1 1 
1 1 1 1 1 1 1 1 1 
1 1 1 1 1 1 1 1 1 
1 1 1 1 1 1 1 1 1 
1 1 1 1 1 1 1 1 1 
1 1 1 1 1 1 1 1 1 
1 1 1 1 1 1 1 1 1 
1 1 1 1 1 1 1 1 1 
1 1 1 1 1 1 1 1 1 
1 1 1 1 1 1 1 1 1 
1 1 1 1 1 1 1 1 1 
1 1 1 1 1 1 1 1 1 
1 1 1 1 1 1 1 1 1 
1 1 1 1 1 1 1 1 1 
1 1 1 1 1 1 1 1 1 
1 1 1 1 1 1 1 1 1 
1 1 1 1 1 1 1 1 1 
1 1 1 1 1 1 1 1 1 
1 1 1 1 1 1 1 1 1 
1 1 1 1 1 1 1 1 1 
1 1 1 1 1 1 1 1 1 
1 1 1 1 1 1 1 1 1 
1 1 1 1 1 1 1 1 1 
1 1 1 1 1 1 1 1 1 
1 1 1 1 1 1 1 1 1 
1 1 1 1 1 1 1 1 1 
1 1 1 1 1 1 1 1 1 
1 1 1 1 1 1 1 1 1 
1 1 1 1 1 1 1 1 1 
1 1 1 1 1 1 1 1 1 
1 1 1 1 1 1 1 1 1 
1 1 1 1 1 1 1 1 1 
1 1 1 1 1 1 1 1 1 
1 1 1 1 1 1 1 1 1 
1 1 1 1 1 1 1 1 1 
1 1 1 1 1 1 1 1 1 
1 1 1 1 1 1 1 1 1 
1 1 1 1 1 1 1 1 1 
1 1 1 1 1 1 1 1 1 
1 1 1 1 1 1 1 1 1 
1 1 1 1 1 1 1 1 1 
1 1 1 1 1 1 1 1 1 
1 1 1 1 1 1 1 1 1 
1 1 1 1 1 1 1 1 1 
1 1 1 1 1 1 1 1 1 
1 1 1 1 1 1 1 1 1 
1 1 1 1 1 1 1 1 1 
1 1 1 1 1 1 1 1 1 
1 1 1 1 1 1 1 1 1 
1 1 1 1 1 1 1 1 1 
1 1 1 1 1 1 1 1 1 
1 1 1 1 1 1 1 1 1 
1 1 1 1 1 1 1 1 1 
1 1 1 1 1 1 1 1 1 
1 1 1 1 1 1 1 1 1 
1 1 1 1 1 1 1 1 1 
1 1 1 1 1 1 1 1 1 
1 1 1 1 1 1 1 1 1 
1 1 1 1 1 1 1 1 1 
1 1 1 1 1 1 1 1 1 
1 1 1 1 1 1 1 1 1 
1 1 1 1 1 1 1 1 1 
1 1 1 1 1 1 1 1 1 
1 1 1 1 1 1 1 1 1 
1 1 1 1 1 1 1 1 1 
1 1 1 1 1 1 1 1 1 
1 1 1 1 1 1 1 1 1 
1 1 1 1 1 1 1 1 1 
1 1 1 1 1 1 1 1 1 
1 1 1 1 1 1 1 1 1 
1 1 1 1 1 1 1 1 1 
1 1 1 1 1 1 1 1 1 
1 1 1 1 1 1 1 1 1 
1 1 1 1 1 1 1 1 1 
1 1 1 1 1 1 1 1 1 
1 1 1 1 1 1 1 1 1 
1 1 1 1 1 1 1 1 1 
1 1 1 1 1 1 1 1 1 
1 1 1 1 1 1 1 1 1 
1 1 1 1 1 1 1 1 1 
1 1 1 1 1 1 1 1 1 
1 1 1 1 1 1 1 1 1 
1 1 1 1 1 1 1 1 1 
1 1 1 1 1 1 1 1 1 
1 1 1 1 1 1 1 1 1 
1 1 1 1 1 1 1 1 1 
1 1 1 1 1 1 1 1 1 
1 1 1 1 1 1 1 1 1 
1 1 1 1 1 1 1 1 1 
1 1 1 1 1 1 1 1 1 
1 1 1 1 1 1 1 1 1 
1 1 1 1 1 1 1 1 1 
1 1 1 1 1 1 1 1 1 
1 1 1 1 1 1 1 1 1 
1 1 1 1 1 1 1 1 1 
1 1 1 1 1 1 1 1 1 
1 1 1 1 1 1 1 1 1 
1 1 1 1 1 1 1 1 1 
1 1 1 1 1 1 1 1 1 
1 1 1 1 1 1 1 1 1 
1 1 1 1 1 1 1 1 1 
1 1 1 1 1 1 1 1 1 
1 1 1 1 1 1 1 1 1 
1 1 1 1 1 1 1 1 1 
1 1 1 1 1 1 1 1 1 
1 1 1 1 1 1 1 1 1 
1 1 1 1 1 1 1 1 1 
1 1 1 1 1 1 1 1 1 
1 1 1 1 1 1 1 1 1 
1 1 1 1 1 1 1 1 1 
1 1 1 1 1 1 1 1 1 
1 1 1 1 1 1 1 1 1 
1 1 1 1 1 1 1 1 1 
1 1 1 1 1 1 1 1 1 
1 1 1 1 1 1 1 1 1 
1 1 1 1 1 1 1 1 1 
1 1 1 1 1 1 1 1 1 
1 1 1 1 1 1 1 1 1 
1 1 1 1 1 1 1 1 1 
1 1 1 1 1 1 1 1 1 
1 1 1 1 1 1 1 1 1 
1 1 1 1 1 1 1 1 1 
1 1 1 1 1 1 1 1 1 
1 1 1 1 1 1 1 1 1 
1 1 1 1 1 1 1 1 1 
1 1 1 1 1 1 1 1 1 
1 1 1 1 1 1 1 1 1 
1 1 1 1 1 1 1 1 1 
1 1 1 1 1 1 1 1 1 
1 1 1 1 1 1 1 1 1 
1 1 1 1 1 1 1 1 1 
1 1 1 1 1 1 1 1 1 
1 1 1 1 1 1 1 1 1 
1 1 1 1 1 1 1 1 1 
1 1 1 1 1 1 1 1 1 
1 1 1 1 1 1 1 1 1 
1 1 1 1 1 1 1 1 1 
1 1 1 1 1 1 1 1 1 
1 1 1 1 1 1 1 1 1 
1 1 1 1 1 1 1 1 1 
1 1 1 1 1 1 1 1 1 
1 1 1 1 1 1 1 1 1 
1 1 1 1 1 1 1 1 1 
1 1 1 1 1 1 1 1 1 
1 1 1 1 1 1 1 1 1 
1 1 1 1 1 1 1 1 1 
1 1 1 1 1 1 1 1 1 
1 1 1 1 1 1 1 1 1 
1 1 1 1 1 1 1 1 1 
1 1 1 1 1 1 1 1 1 
1 1 1 1 1 1 1 1 1 
1 1 1 1 1 1 1 1 1 
1 1 1 1 1 1 1 1 1 
1 1 1 1 1 1 1 1 1 
1 1 1 1 1 1 1 1 1 
1 1 1 1 1 1 1 1 1 
1 1 1 1 1 1 1 1 1 
1 1 1 1 1 1 1 1 1 
1 1 1 1 1 1 1 1 1 
1 1 1 1 1 1 1 1 1 
1 1 1 1 1 1 1 1 1 
1 1 1 1 1 1 1 1 1 
1 1 1 1 1 1 1 1 1 
1 1 1 1 1 1 1 1 1 
1 1 1 1 1 1 1 1 1 
1 1 1 1 1 1 1 1 1 
1 1 1 1 1 1 1 1 1 
1 1 1 1 1 1 1 1 1 
1 1 1 1 1 1 1 1 1 
1 1 1 1 1 1 1 1 1 
1 1 1 1 1 1 1 1 1 
1 1 1 1 1 1 1 1 1 
1 1 1 1 1 1 1 1 1 
1 1 1 1 1 1 1 1 1 
1 1 1 1 1 1 1 1 1 
1 1 1 1 1 1 1 1 1 
1 1 1 1 1 1 1 1 1 
1 1 1 1 1 1 1 1 1 
1 1 1 1 1 1 1 1 1 
1 1 1 1 1 1 1 1 1 
1 1 1 1 1 1 1 1 1 
1 1 1 1 1 1 1 1 1 
1 1 1 1 1 1 1 1 1 
1 1 1 1 1 1 1 1 1 
1 1 1 1 1 1 1 1 1 
1 1 1 1 1 1 1 1 1 
1 1 1 1 1 1 1 1 1 
1 1 1 1 1 1 1 1 1 
1 1 1 1 1 1 1 1 1 
1 1 1 1 1 1 1 1 1 
1 1 1 1 1 1 1 1 1 
1 1 1 1 1 1 1 1 1 
1 1 1 1 1 1 1 1 1 
1 1 1 1 1 1 1 1 1 
1 1 1 1 1 1 1 1 1 
1 1 1 1 1 1 1 1 1 
1 1 1 1 1 1 1 1 1 
1 1 1 1 1 1 1 1 1 
1 1 1 1 1 1 1 1 1 
1 1 1 1 1 1 1 1 1 
1 1 1 1 1 1 1 1 1 
1 1 1 1 1 1 1 1 1 
1 1 1 1 1 1 1 1 1 
1 1 1 1 1 1 1 1 1 
1 1 1 1 1 1 1 1 1 
1 1 1 1 1 1 1 1 1 
1 1 1 1 1 1 1 1 1 
1 1 1 1 1 1 1 1 1 
1 1 1 1 1 1 1 1 1 
1 1 1 1 1 1 1 1 1 
1 1 1 1 1 1 1 1 1 
1 1 1 1 1 1 1 1 1 
1 1 1 1 1 1 1 1 1 
1 1 1 1 1 1 1 1 1 
1 1 1 1 1 1 1 1 1 
1 1 1 1 1 1 1 1 1 
1 1 1 1 1 1 1 1 1 
1 1 1 1 1 1 1 1 1 
1 1 1 1 1 1 1 1 1 
1 1 1 1 1 1 1 1 1 
1 1 1 1 1 1 1 1 1 
1 1 1 1 1 1 1 1 1 
1 1 1 1 1 1 1 1 1 
1 1 1 1 1 1 1 1 1 
1 1 1 1 1 1 1 1 1 
1 1 1 1 1 1 1 1 1 
1 1 1 1 1 1 1 1 1 
1 1 1 1 1 1 1 1 1 
1 1 1 1 1 1 1 1 1 
1 1 1 1 1 1 1 1 1 
1 1 1 1 1 1 1 1 1 
1 1 1 1 1 1 1 1 1 
1 1 1 1 1 1 1 1 1 
1 1 1 1 1 1 1 1 1 
1 1 1 1 1 1 1 1 1 
1 1 1 1 1 1 1 1 1 
1 1 1 1 1 1 1 1 1 
1 1 1 1 1 1 1 1 1 
1 1 1 1 1 1 1 1 1 
1 1 1 1 1 1 1 1 1 
1 1 1 1 1 1 1 1 1 
1 1 1 1 1 1 1 1 1 
1 1 1 1 1 1 1 1 1 
1 1 1 1 1 1 1 1 1 
1 1 1 1 1 1 1 1 1 
1 1 1 1 1 1 1 1 1 
1 1 1 1 1 1 1 1 1 
1 1 1 1 1 1 1 1 1 
1 1 1 1 1 1 1 1 1 
1 1 1 1 1 1 1 1 1 
1 1 1 1 1 1 1 1 1 
1 1 1 1 1 1 1 1 1 
1 1 1 1 1 1 1 1 1 
1 1 1 1 1 1 1 1 1 
1 1 1 1 1 1 1 1 1 
1 1 1 1 1 1 1 1 1 
1 1 1 1 1 1 1 1 1 
1 1 1 1 1 1 1 1 1 
1 1 1 1 1 1 1 1 1 
1 1 1 1 1 1 1 1 1 
1 1 1 1 1 1 1 1 1 
1 1 
NORMALS normals float
-0.0161269 0 -0.99987 -0.0114965 -0.701288 -0.712785 -0.99987 0 -0.0161269 
0.0161248 -0.0161248 -0.99974 0.0114042 -0.707061 -0.707061 0.707061 -0.0114042 -0.707061 
-0.580454 0.571092 -0.580454 -0.574196 0.574196 -0.583609 0 0 -1 
0.574196 -0.574196 -0.583609 -0.0161248 0.0161248 -0.99974 -0.707061 0.0114042 -0.707061 
0.574196 -0.574196 -0.583609 0 0 -1 0.0161248 -0.0161248 -0.99974 
0.0114042 -0.707061 -0.707061 0.707061 -0.0114042 -0.707061 -0.0161248 -0.0161248 -0.99974 
-0.0114042 -0.707061 -0.707061 -0.707061 -0.0114042 -0.707061 0 0 -1 
0 -0.701335 -0.712832 0 0 -1 0 -0.701335 -0.712832 
0 0 -1 0 -0.701335 -0.712832 0 0 -1 
0 -0.701335 -0.712832 0 0 -1 0 -0.701335 -0.712832 
0 0 -1 0 -0.701335 -0.712832 0 0 -1 
0 -0.701335 -0.712832 0.0161269 0 -0.99987 0.0114965 -0.701288 -0.712785 
0.707107 0 -0.707107 -0.0114042 0.707061 -0.707061 -0.574196 0.574196 -0.583609 
-0.574196 0.574196 -0.583609 0 0 -1 0.701335 0 -0.712832 
0 0 -1 -0.574196 -0.574196 -0.583609 0.574196 0.574196 -0.583609 
0.574196 0.574196 -0.583609 0 0.701335 -0.712832 0 0.701335 -0.712832 
0 0.701335 -0.712832 0 0.701335 -0.712832 0 0.701335 -0.712832 
0 0.701335 -0.712832 0.0114965 0.701288 -0.712785 0 0 -1 
-0.701335 0 -0.712832 0.701335 0 -0.712832 -0.0161248 -0.0161248 -0.99974 
-0.0114042 -0.707061 -0.707061 -0.707061 -0.0114042 -0.707061 0 0 -1 
0 -0.701335 -0.712832 0 0 -1 0 -0.701335 -0.712832 
0 0 -1 0 -0.701335 -0.712832 0 0 -1 
0 -0.701335 -0.712832 0 0 -1 0 -0.701335 -0.712832 
0 0 -1 0 -0.701335 -0.712832 0 0 -1 
-0.574196 -0.574196 -0.583609 0.0161248 0.0161248 -0.99974 0.707061 0.0114042 -0.707061 
0 0.0161269 -0.99987 -0.701288 0.0114965 -0.712785 0.701288 0.0114965 -0.712785 
0 0 -1 -0.574196 -0.574196 -0.583609 0.574196 0.574196 -0.583609 
0.574196 0.574196 -0.583609 0 0.701335 -0.712832 0 0.701335 -0.712832 
0 0.701335 -0.712832 0 0.701335 -0.712832 0 0.701335 -0.712832 
0 0.701335 -0.712832 0.0114042 0.707061 -0.707061 0 0.707107 -0.707107 
-0.0161248 -0.0161248 -0.99974 -0.0114042 -0.707061 -0.707061 -0.707061 -0.0114042 -0.707061 
0 0 -1 -0.574196 -0.574196 -0.583609 0.0161248 0.0161248 -0.99974 
0.707061 0.0114042 -0.707061 0 0 -1 -0.701335 0 -0.712832 
0.574196 0.574196 -0.583609 0.574196 0.574196 -0.583609 0.0114042 0.707061 -0.707061 
0 0.0161269 -0.99987 -0.701288 0.0114965 -0.712785 0.701288 0.0114965 -0.712785 
0 0.99987 -0.0161269 -0.0161248 -0.0161248 -0.99974 -0.0161248 -0.99974 -0.0161248 
-0.707061 -0.707061 -0.0114042 0.0161248 -0.0161248 -0.99974 0.0161248 -0.99974 -0.0161248 
0.99974 -0.0161248 -0.0161248 -0.0161248 -0.0161248 -0.99974 -0.707061 -0.707061 -0.0114042 
-0.707061 -0.707061 -0.0114042 0 0 -1 0.0161269 0 -0.99987 
0.99987 0 -0.0161269 -0.0161248 -0.0161248 -0.99974 -0.707061 -0.707061 -0.0114042 
-0.707061 -0.707061 -0.0114042 0 0 -1 0 0 -1 
0.0161269 0 -0.99987 0.99987 0 -0.0161269 -0.0161248 -0.0161248 -0.99974 
-0.707061 -0.707061 -0.0114042 -0.707061 -0.707061 -0.0114042 0 0 -1 
0 0 -1 0 0 -1 0.0161269 0 -0.99987 
0.580454 -0.571092 -0.580454 -0.0161248 -0.0161248 -0.99974 -0.707061 -0.707061 -0.0114042 
-0.99974 -0.0161248 -0.0161248 0 0 -1 0 0 -1 
0 0 -1 0 0 -1 0 0 -1 
0.571092 -0.580454 -0.580454 0 -0.0161269 -0.99987 0.0161248 -0.0161248 -0.99974 
0.0161248 -0.99974 -0.0161248 0.99974 -0.0161248 -0.0161248 -0.0161269 0 -0.99987 
-0.99987 0 -0.0161269 0 0 -1 0 0 -1 
0 0 -1 0 0 -1 0 0 -1 
0 0 -1 0.0161269 0 -0.99987 0.712785 -0.701288 -0.0114965 
-0.0161269 0 -0.99987 -0.99987 0 -0.0161269 0 0 -1 
0 0 -1 0 0 -1 0 0 -1 
0 0 -1 0 0 -1 0 0 -1 
0.701288 -0.712785 -0.0114965 0 -0.0161269 -0.99987 0.0161248 -0.0161248 -0.99974 
0.0161248 -0.99974 -0.0161248 0.99974 -0.0161248 -0.0161248 -0.0161248 0.0161248 -0.99974 
-0.99974 0.0161248 -0.0161248 0 0.0161269 -0.99987 0 0 -1 
0 0 -1 0 0 -1 0 0 -1 
0 0 -1 0 0 -1 0 0 -1 
0.0161269 0 -0.99987 0.99987 0 -0.0161269 -0.0161248 0.99974 -0.0161248 
-0.701288 0.0114965 -0.712785 -0.707107 0 -0.707107 -0.0161269 0 -0.99987 
0 0 -1 0 0 -1 0 0 -1 
0 0 -1 0 0 -1 0 0 -1 
0.0161269 0 -0.99987 0.99987 0 -0.0161269 -0.0161248 -0.0161248 -0.99974 
-0.707061 -0.0114042 -0.707061 -0.57735 -0.57735 -0.57735 0 0 -1 
0 0 -1 0 0 -1 0 0 -1 
0 0 -1 0 0 -1 0 0 -1 
0.0161269 0 -0.99987 0.712785 -0.701288 -0.0114965 -0.0161248 -0.0161248 -0.99974 
-0.0161248 -0.99974 -0.0161248 -0.57735 -0.57735 -0.57735 0 -0.0161269 -0.99987 
0 -0.99987 -0.0161269 0 -0.0161269 -0.99987 0 -0.99987 -0.0161269 
0 -0.0161269 -0.99987 0 -0.99987 -0.0161269 0 -0.0161269 -0.99987 
0 -0.99987 -0.0161269 0.0161248 -0.0161248 -0.99974 0.0161248 -0.99974 -0.0161248 
0.99974 -0.0161248 -0.0161248 -0.0161248 -0.0161248 -0.99974 -0.57735 -0.57735 -0.57735 
-0.57735 -0.57735 -0.57735 0 0 -1 0 0 -1 
0 0 -1 0 0 -1 0 0 -1 
0 0 -1 0 0 -1 0 0 -1 
0 0 -1 0.701288 -0.712785 -0.0114965 0 -0.0161269 -0.99987 
0.0161248 -0.0161248 -0.99974 0.0161248 -0.99974 -0.0161248 0.99974 -0.0161248 -0.0161248 
-0.0161248 -0.0161248 -0.99974 -0.57735 -0.57735 -0.57735 -0.57735 -0.57735 -0.57735 
0 0 -1 0 0 -1 0 0 -1 
0 0 -1 0 0 -1 0.0161269 0 -0.99987 
0.580454 -0.571092 -0.580454 -0.0161248 -0.0161248 -0.99974 -0.57735 -0.57735 -0.57735 
-0.57735 -0.57735 -0.57735 0 0 -1 0 0 -1 
0 0 -1 0 0 -1 0 0 -1 
0 0 -1 0 0 -1 0 0 -1 
0 0 -1 0 0 -1 0 0 -1 
0.0161269 0 -0.99987 0.99987 0 -0.0161269 -0.0114042 -0.707061 -0.707061 
-0.57735 -0.57735 -0.57735 -0.707061 -0.0114042 -0.707061 0 -0.701335 -0.712832 
0 0 -1 0 0 -1 0 0 -1 
0 0 -1 0 0 -1 0 0 -1 
0.571092 -0.580454 -0.580454 0 -0.0161269 -0.99987 0 -0.0161269 -0.99987 
0 -0.707107 -0.707107 0 -0.0161269 -0.99987 0 -0.707107 -0.707107 
0 -0.0161269 -0.99987 0 -0.707107 -0.707107 0 -0.0161269 -0.99987 
-0.571092 -0.580454 -0.580454 0 0 -1 0 0 -1 
0 0 -1 0 0 -1 0 0 -1 
0 0 -1 0 0 -1 0 0 -1 
0 0 -1 0 0 -1 0 0 -1 
0 0 -1 0.0161269 0 -0.99987 0.99987 0 -0.0161269 
-0.712832 0 -0.701335 0.701335 0 -0.712832 0 0 -1 
0 0 -1 0 0 -1 0 0 -1 
0 0 -1 0 0 -1 0 0 -1 
0 0 -1 0 0 -1 0 0 -1 
0 0 -1 0 0 -1 0 0 -1 
0 0 -1 0 0 -1 0 0 -1 
0 0 -1 0 0 -1 0 0 -1 
0 0 -1 0 0 -1 0 0 -1 
0.0161269 0 -0.99987 0.99987 0 -0.0161269 -0.580454 0.571092 -0.580454 
-0.580454 -0.571092 -0.580454 0.574196 -0.574196 -0.583609 0 -0.701335 -0.712832 
0 0 -1 0 0 -1 0 0 -1 
0 0 -1 0 0 -1 0 0 -1 
0 0 -1 0 0 -1 0 0 -1 
0 0 -1 0 0 -1 0 -0.701335 -0.712832 
0 -0.701335 -0.712832 0 -0.701335 -0.712832 0 -0.701335 -0.712832 
0 -0.701335 -0.712832 0 -0.701335 -0.712832 0 -0.701335 -0.712832 
0 -0.701335 -0.712832 0 -0.701335 -0.712832 0 0 -1 
0.0161248 0.0161248 -0.99974 0.99974 0.0161248 -0.0161248 -0.0161248 -0.0161248 -0.99974 
-0.57735 -0.57735 -0.57735 -0.57735 -0.57735 -0.57735 -0.701335 0 -0.712832 
0.701335 0 -0.712832 0 0 -1 0 0 -1 
0 0 -1 0 0 -1 0 0 -1 
0 0 -1 0 0 -1 0 0 -1 
0 0 -1 -0.701335 0 -0.712832 0.707061 0.0114042 -0.707061 
0.707061 0.707061 -0.0114042 0.707061 0.707061 -0.0114042 -0.0161248 -0.0161248 -0.99974 
-0.57735 -0.57735 -0.57735 -0.707061 -0.0114042 -0.707061 0 0 -1 
0 0 -1 0 0.701335 -0.712832 -0.574196 0.574196 -0.583609 
0.701335 0 -0.712832 0 0 -1 0 0 -1 
0 -0.701335 -0.712832 0 -0.701335 -0.712832 0 -0.701335 -0.712832 
0 -0.701335 -0.712832 0 -0.701335 -0.712832 0 -0.701335 -0.712832 
0 -0.701335 -0.712832 -0.574196 -0.574196 -0.583609 0.574196 0.574196 -0.583609 
0 0.701335 -0.712832 0 0.701335 -0.712832 0 0.701335 -0.712832 
0 0.701335 -0.712832 0 0.701335 -0.712832 0 0.701335 -0.712832 
0.0114042 0.707061 -0.707061 0.707061 0.707061 -0.0114042 0.707061 0.707061 -0.0114042 
-0.0161248 0.0161248 -0.99974 -0.707061 0.0114042 -0.707061 0 0.0161269 -0.99987 
0 0 -1 0 0 -1 -0.701335 0 -0.712832 
0.701335 0 -0.712832 0 0 -1 -0.701335 0 -0.712832 
0.701335 0 -0.712832 0 0 -1 0 0 -1 
0 0 -1 0 0 -1 0 0 -1 
0.0161248 0.0161248 -0.99974 0.707061 0.707061 -0.0114042 0.707061 0.707061 -0.0114042 
-0.0161248 0.99974 -0.0161248 -0.571092 0.580454 -0.580454 -0.580454 0.571092 -0.580454 
-0.0161269 0 -0.99987 0 0 -1 -0.701335 0 -0.712832 
0.701335 0 -0.712832 0 -0.701335 -0.712832 -0.574196 -0.574196 -0.583609 
0.574196 0.574196 -0.583609 0 0.701335 -0.712832 0 0.701335 -0.712832 
0 0.701335 -0.712832 0 0.701335 -0.712832 0 0.701335 -0.712832 
0 0.701335 -0.712832 0 0.701335 -0.712832 0 0 -1 
0 0 -1 0 0 -1 0 0 -1 
0 0 -1 0.0161248 0.0161248 -0.99974 0.707061 0.707061 -0.0114042 
0.707061 0.707061 -0.0114042 -0.0161248 0.0161248 -0.99974 -0.99974 0.0161248 -0.0161248 
0 0.0161269 -0.99987 0 0.0161269 -0.99987 0 0.707107 -0.707107 
-0.701335 0 -0.712832 0.701335 0 -0.712832 0 0 -1 
0 0 -1 0 0 -1 0 0 -1 
0 0 -1 0 0.0161269 -0.99987 0 0.0161269 -0.99987 
0 0.0161269 -0.99987 0 0.0161269 -0.99987 0 0.0161269 -0.99987 
0 0.0161269 -0.99987 0.0161248 0.0161248 -0.99974 0.707061 0.707061 -0.0114042 
0.707061 0.707061 -0.0114042 -0.0161248 0.99974 -0.0161248 0 0.99987 -0.0161269 
0 0.99987 -0.0161269 -0.571092 0.580454 -0.580454 -0.580454 0.571092 -0.580454 
-0.707107 0 -0.707107 0.574196 0.574196 -0.583609 0 0.701335 -0.712832 
0 0 -1 0 0 -1 0 0 -1 
0 0 -1 0 0 -1 0.0161248 0.0161248 -0.99974 
0.707061 0.707061 -0.0114042 0.701288 0.712785 -0.0114965 0 0.99987 -0.0161269 
0 0.99987 -0.0161269 0 0.99987 -0.0161269 0 0.99987 -0.0161269 
0 0.99987 -0.0161269 0.0161248 0.99974 -0.0161248 -0.707061 0.0114042 -0.707061 