# vtk DataFile Version 3.0
vtk output
ASCII
DATASET POLYDATA
POINTS 7222 float
76 53 110.017 76 52.0169 111 75.017 53 111 
77 53 110.017 77 52.0169 111 77.983 53 111 
72 54 110.017 72 53.0169 111 71.017 54 111 
72.983 54 111 76 54 110.017 75.017 54 111 
76.983 54 111 77 53.9831 111 72 55 110.017 
71.017 55 111 73 54.0169 111 73 55 110.017 
74 55 110.017 74 54.0169 111 75 55 110.017 
75 54.0169 111 76 55 110.017 76.983 55 111 
72 55.9831 111 73 55.9831 111 74 55.9831 111 
75 55.9831 111 76 55.9831 111 65 57 110.017 
65 56.0169 111 64.017 57 111 66 57 110.017 
66 56.0169 111 66.983 57 111 65 57.9831 111 
65.017 58 111 66 58 110.017 66.983 58 111 
66 59 110.017 65.017 59 111 66.983 59 111 
66 60 110.017 65.017 60 111 66.983 60 111 
66 60.9831 111 67 60.0169 111 66.017 61 111 
67 61 110.017 68 61 110.017 68 60.0169 111 
68.983 61 111 67 61.9831 111 67.017 62 111 
68 62 110.017 68.983 62 111 68 62.9831 111 
69 62.0169 111 68.017 63 111 69 63 110.017 
70 63 110.017 70 62.0169 111 71 63 110.017 
71 62.0169 111 72 63 110.017 72 62.0169 111 
73 63 110.017 73 62.0169 111 73.983 63 111 
69 63.9831 111 70 63.9831 111 71 63.9831 111 
72 63.9831 111 73 63.9831 111 73 52 111.017 
73 51.0169 112 72.017 52 112 74 52 111.017 
74 51.0169 112 75 52 111.017 75 51.0169 112 
76 52 111.017 76 51.0169 112 77 52 111.017 
77 51.0169 112 78 52 111.017 78 51.0169 112 
78.983 52 112 72 53 111.017 72 52.0169 112 
71.017 53 112 73 53 111.017 74 53 111.017 
75 53 111.017 78 53 111.017 78.983 53 112 
67 54 111.017 67 53.0169 112 66.017 54 112 
68 54 111.017 68 53.0169 112 69 54 111.017 
69 53.0169 112 70 54 111.017 70 53.0169 112 
71 54 111.017 71 53.0169 112 73 54 111.017 
74 54 111.017 75 54 111.017 77 54 111.017 
78 54 111.017 78.983 54 112 66 55 111.017 
66 54.0169 112 65.017 55 112 67 55 111.017 
68 55 111.017 69 55 111.017 70 55 111.017 
71 55 111.017 77 55 111.017 78 55 111.017 
78.983 55 112 65 56 111.017 65 55.0169 112 
64.017 56 112 66 56 111.017 67 56 111.017 
68 56 111.017 69 56 111.017 70 56 111.017 
71 56 111.017 72 56 111.017 73 56 111.017 
74 56 111.017 75 56 111.017 76 56 111.017 
77 56 111.017 78 56 111.017 78.983 56 112 
64.017 57 112 67 57 111.017 68 57 111.017 
69 57 111.017 70 57 111.017 71 57 111.017 
72 57 111.017 73 57 111.017 74 57 111.017 
75 57 111.017 76 57 111.017 77 57 111.017 
77.983 57 112 78 56.9831 112 65 58 111.017 
64.017 58 112 67 58 111.017 68 58 111.017 
69 58 111.017 70 58 111.017 71 58 111.017 
72 58 111.017 73 58 111.017 74 58 111.017 
75 58 111.017 76 58 111.017 76.983 58 112 
77 57.9831 112 65 59 111.017 64.017 59 112 
67 59 111.017 68 59 111.017 69 59 111.017 
70 59 111.017 71 59 111.017 72 59 111.017 
73 59 111.017 74 59 111.017 75 59 111.017 
76 59 111.017 76.983 59 112 65 60 111.017 
64.017 60 112 67 60 111.017 68 60 111.017 
69 60 111.017 70 60 111.017 71 60 111.017 
72 60 111.017 73 60 111.017 74 60 111.017 
75 60 111.017 76 60 111.017 76.983 60 112 
65 61 111.017 64.017 61 112 66 61 111.017 
69 61 111.017 70 61 111.017 71 61 111.017 
72 61 111.017 73 61 111.017 74 61 111.017 
75 61 111.017 75.983 61 112 76 60.9831 112 
65 61.9831 112 66 61.9831 112 67 62 111.017 
66.017 62 112 69 62 111.017 70 62 111.017 
71 62 111.017 72 62 111.017 73 62 111.017 
74 62 111.017 74.983 62 112 75 61.9831 112 
67 63 111.017 66.017 63 112 68 63 111.017 
74 63 111.017 74.983 63 112 67 63.9831 112 
68 63.9831 112 69 64 111.017 68.017 64 112 
70 64 111.017 71 64 111.017 72 64 111.017 
73 64 111.017 74 64 111.017 74.983 64 112 
69 65 111.017 68.017 65 112 70 65 111.017 
71 65 111.017 72 65 111.017 73 65 111.017 
73.983 65 112 74 64.983 112 69 65.983 112 
70 65.983 112 71 65.983 112 72 65.983 112 
73 65.983 112 72 52 112.017 72 51.0169 113 
71.017 52 113 73 51.0169 113 74 51.0169 113 
75 51.0169 113 76 51.0169 113 77 51.0169 113 
78 51.0169 113 78.983 52 113 66 53 112.017 
66 52.0169 113 65.017 53 113 67 53 112.017 
67 52.0169 113 68 53 112.017 68 52.0169 113 
69 53 112.017 69 52.0169 113 70 53 112.017 
70 52.0169 113 71 53 112.017 71 52.0169 113 
78.983 53 113 66 54 112.017 65.017 54 113 
78.983 54 113 64 55 112.017 64 54.0169 113 
63.0169 55 113 65 55 112.017 65 54.0169 113 
78.983 55 113 64 56 112.017 63.0169 56 113 
78.983 56 113 64 56.9831 113 64.017 57 113 
77.983 57 113 78 56.9831 113 64.017 58 113 
76.983 58 113 77 57.9831 113 64.017 59 113 
76.983 59 113 64.017 60 113 76.983 60 113 
64.017 61 113 75.983 61 113 76 60.9831 113 
65 61.9831 113 66 62 112.017 65.017 62 113 
74.983 62 113 75 61.9831 113 66 63 112.017 
65.017 63 113 74.983 63 113 66 63.9831 113 
67 63.9831 113 68 64 112.017 67.017 64 113 
74.983 64 113 68 65 112.017 67.017 65 113 
73.983 65 113 74 64.983 113 68 65.983 113 
69 65.983 113 70 66 112.017 69.017 66 113 
70.983 66 113 71 65.983 113 72 65.983 113 
73 65.983 113 70 66.983 113 65 69 112.017 
65 68.017 113 64.017 69 113 66 69 112.017 
66 68.017 113 66.983 69 113 65 69.983 113 
66 69.983 113 63 52 113.017 63 51.0169 114 
62.0169 52 114 64 52 113.017 64 51.0169 114 
65 52 113.017 65 51.0169 114 66 52 113.017 
66 51.0169 114 67 52 113.017 67 51.0169 114 
68 52 113.017 68 51.0169 114 69 52 113.017 
69 51.0169 114 70 52 113.017 70 51.0169 114 
71 52 113.017 71 51.0169 114 72 51.0169 114 
73 51.0169 114 74 51.0169 114 75 51.0169 114 
76 51.0169 114 77 51.0169 114 78 51.0169 114 
78.983 52 114 63 53 113.017 62.0169 53 114 
64 53 113.017 65 53 113.017 78.983 53 114 
63 53.9831 114 64 53.9831 114 64.017 54 114 
65 54 113.017 78.983 54 114 64 55 113.983 
64.017 55 114 78.983 55 114 64 56 113.983 
64.017 56 114 78.983 56 114 64.017 57 114 
77.983 57 114 78 56.9831 114 65 57.9831 114 
65 58 113.983 66 57.9831 114 66 58 113.983 
66.017 58 114 76.983 58 114 77 57.9831 114 
65 59 113.983 66 59 113.983 66.017 59 114 
76.983 59 114 65 60 113.983 66 60 113.983 
66.017 60 114 76.983 60 114 65 61 113.983 
65.017 61 114 66 60.0169 114 75.983 61 114 
76 60.9831 114 63 62 113.017 63 61.0169 114 
62.0169 62 114 64 62 113.017 64 61.0169 114 
65 61.0169 114 65 62 113.017 74.983 62 114 
75 61.9831 114 63 63 113.017 62.0169 63 114 
64 63 113.017 65 63 113.017 74.983 63 114 
63 64 113.017 62.0169 64 114 64 64 113.017 
65 64 113.017 66 64 113.017 67 64 113.017 
74.983 64 114 63 65 113.017 62.0169 65 114 
64 65 113.017 65 65 113.017 66 65 113.017 
67 65 113.017 74 65 113.017 74.983 65 114 
63 65.983 114 64 65.983 114 64.017 66 114 
65 66 113.017 66 66 113.017 67 66 113.017 
68 66 113.017 69 66 113.017 71 66 113.017 
72 66 113.017 73 66 113.017 74 66 113.017 
74.983 66 114 65 67 113.017 64.017 67 114 
66 67 113.017 67 67 113.017 68 67 113.017 
69 67 113.017 70 67 113.017 71 67 113.017 
72 67 113.017 73 67 113.017 74 67 113.017 
74.983 67 114 65 68 113.017 64.017 68 114 
66 68 113.017 67 68 113.017 68 68 113.017 
68.983 68 114 69 67.983 114 70 67.983 114 
71 67.983 114 72 67.983 114 72.017 68 114 
73 68 113.017 74 68 113.017 74.983 68 114 
64.017 69 114 67 69 113.017 67.983 69 114 
68 68.983 114 73 69 113.017 72.017 69 114 
73.983 69 114 74 68.983 114 65 70 113.017 
64.017 70 114 66 70 113.017 66.983 70 114 
67 69.983 114 73 69.983 114 65 71 113.017 
64.017 71 114 66 71 113.017 66.983 71 114 
65 72 113.017 64.017 72 114 66 72 113.017 
66.983 72 114 65 73 113.017 64.017 73 114 
65.983 73 114 66 72.983 114 65 73.983 114 
64 44 114.017 64 43.0169 115 63.0169 44 115 
64.983 44 115 64 45 114.017 63.0169 45 115 
64.983 45 115 64 46 114.017 63.0169 46 115 
64.983 46 115 64 47 114.017 63.0169 47 115 
64.983 47 115 64 48 114.017 63.0169 48 115 
64.983 48 115 63 49 114.017 63 48.0169 115 
62.0169 49 115 64 49 114.017 64.983 49 115 
63 49.9831 115 64 49.9831 115 63 51 114.017 
63 50.0169 115 62.0169 51 115 64 51 114.017 
64 50.0169 115 65 51 114.017 65 50.0169 115 
66 51 114.017 66 50.0169 115 67 51 114.017 
67 50.0169 115 68 51 114.017 68 50.0169 115 
69 51 114.017 69 50.0169 115 70 51 114.017 
70 50.0169 115 71 51 114.017 71 50.0169 115 
72 51 114.017 72 50.0169 115 73 51 114.017 
73 50.0169 115 74 51 114.017 74 50.0169 115 
75 51 114.017 75 50.0169 115 76 51 114.017 
76 50.0169 115 77 51 114.017 77 50.0169 115 
77.983 51 115 62.0169 52 115 78 51.0169 115 
78.983 52 115 62.0169 53 115 78.983 53 115 
63 53.9831 115 64 53.9831 115 64.017 54 115 
78.983 54 115 64.017 55 115 78.983 55 115 
64.017 56 115 78.983 56 115 64.017 57 115 
77.983 57 115 78 56.9831 115 65 57.9831 115 
66 57.9831 115 66.017 58 115 76.983 58 115 
77 57.9831 115 66.017 59 115 76.983 59 115 
66.017 60 115 76.983 60 115 66 60.0169 115 
65.017 61 115 75.983 61 115 76 60.9831 115 
62 62 114.017 62 61.0169 115 61.0169 62 115 
63 61.0169 115 64 61.0169 115 65 61.0169 115 
74.983 62 115 75 61.9831 115 62 63 114.017 
61.0169 63 115 74.983 63 115 62 64 114.017 
61.0169 64 115 74.983 64 115 62 65 114.017 
61.0169 65 115 74.983 65 115 62 65.983 115 
63 65.983 115 64 66 114.017 63.0169 66 115 
74.983 66 115 64 67 114.017 63.0169 67 115 
74.983 67 115 64 68 114.017 63.0169 68 115 
68.983 68 115 69 67.983 115 70 67.983 115 
71 67.983 115 72 68 114.017 71.017 68 115 
74.983 68 115 64 69 114.017 63.0169 69 115 
68 69 114.017 68.983 69 115 72 69 114.017 
71.017 69 115 73.983 69 115 74 68.983 115 
64 70 114.017 63.0169 70 115 66.983 70 115 
67 69.983 115 68 69.983 115 72 69.983 115 
73 69.983 115 64 71 114.017 63.0169 71 115 
66.983 71 115 64 71.983 115 64.017 72 115 
66.983 72 115 64.017 73 115 66 73 114.017 
66.983 73 115 65 73.983 115 66 73.983 115 
64 43 115.017 64 42.0169 116 63.0169 43 116 
64.983 43 116 63 44 115.017 63 43.0169 116 
62.0169 44 116 65 44 115.017 65 43.0169 116 
66 44 115.017 66 43.0169 116 66.983 44 116 
63 45 115.017 62.0169 45 116 65 45 115.017 
66 45 115.017 66.983 45 116 63 46 115.017 
62.0169 46 116 65 46 115.017 66 46 115.017 
67 45.0169 116 67 46 115.017 68 46 115.017 
68 45.0169 116 68.983 46 116 63 47 115.017 
62.0169 47 116 65 47 115.017 66 47 115.017 
67 47 115.017 68 47 115.017 68.983 47 116 
63 48 115.017 62.0169 48 116 65 48 115.017 
66 48 115.017 67 48 115.017 68 48 115.017 
69 47.0169 116 69 48 115.017 70 48 115.017 
[...]
POINT_DATA 7222
SCALARS scalars float
LOOKUP_TABLE default
1 1 1 1 1 1 1 1 1 
1 1 1 1 1 1 1 1 1 
1 1 1 1 1 1 1 1 1 
1 1 1 1 1 1 1 1 1 
1 1 1 1 1 1 1 1 1 
1 1 1 1 1 1 1 1 1 
1 1 1 1 1 1 1 1 1 
1 1 1 1 1 1 1 1 1 
1 1 1 1 1 1 1 1 1 
1 1 1 1 1 1 1 1 1 
1 1 1 1 1 1 1 1 1 
1 1 1 1 1 1 1 1 1 
1 1 1 1 1 1 1 1 1 
1 1 1 1 1 1 1 1 1 
1 1 1 1 1 1 1 1 1 
1 1 1 1 1 1 1 1 1 
1 1 1 1 1 1 1 1 1 
1 1 1 1 1 1 1 1 1 
1 1 1 1 1 1 1 1 1 
1 1 1 1 1 1 1 1 1 
1 1 1 1 1 1 1 1 1 
1 1 1 1 1 1 1 1 1 
1 1 1 1 1 1 1 1 1 
1 1 1 1 1 1 1 1 1 
1 1 1 1 1 1 1 1 1 
1 1 1 1 1 1 1 1 1 
1 1 1 1 1 1 1 1 1 
1 1 1 1 1 1 1 1 1 
1 1 1 1 1 1 1 1 1 
1 1 1 1 1 1 1 1 1 
1 1 1 1 1 1 1 1 1 
1 1 1 1 1 1 1 1 1 
1 1 1 1 1 1 1 1 1 
1 1 1 1 1 1 1 1 1 
1 1 1 1 1 1 1 1 1 
1 1 1 1 1 1 1 1 1 
1 1 1 1 1 1 1 1 1 
1 1 1 1 1 1 1 1 1 
1 1 1 1 1 1 1 1 1 
1 1 1 1 1 1 1 1 1 
1 1 1 1 1 1 1 1 1 
1 1 1 1 1 1 1 1 1 
1 1 1 1 1 1 1 1 1 
1 1 1 1 1 1 1 1 1 
1 1 1 1 1 1 1 1 1 
1 1 1 1 1 1 1 1 1 
1 1 1 1 1 1 1 1 1 
1 1 1 1 1 1 1 1 1 
1 1 1 1 1 1 1 1 1 
1 1 1 1 1 1 1 1 1 
1 1 1 1 1 1 1 1 1 
1 1 1 1 1 1 1 1 1 
1 1 1 1 1 1 1 1 1 
1 1 1 1 1 1 1 1 1 
1 1 1 1 1 1 1 1 1 
1 1 1 1 1 1 1 1 1 
1 1 1 1 1 1 1 1 1 
1 1 1 1 1 1 1 1 1 
1 1 1 1 1 1 1 1 1 
1 1 1 1 1 1 1 1 1 
1 1 1 1 1 1 1 1 1 
1 1 1 1 1 1 1 1 1 
1 1 1 1 1 1 1 1 1 
1 1 1 1 1 1 1 1 1 
1 1 1 1 1 1 1 1 1 
1 1 1 1 1 1 1 1 1 
1 1 1 1 1 1 1 1 1 
1 1 1 1 1 1 1 1 1 
1 1 1 1 1 1 1 1 1 
1 1 1 1 1 1 1 1 1 
1 1 1 1 1 1 1 1 1 
1 1 1 1 1 1 1 1 1 
1 1 1 1 1 1 1 1 1 
1 1 1 1 1 1 1 1 1 
1 1 1 1 1 1 1 1 1 
1 1 1 1 1 1 1 1 1 
1 1 1 1 1 1 1 1 1 
1 1 1 1 1 1 1 1 1 
1 1 1 1 1 1 1 1 1 
1 1 1 1 1 1 1 1 1 
1 1 1 1 1 1 1 1 1 
1 1 1 1 1 1 1 1 1 
1 1 1 1 1 1 1 1 1 
1 1 1 1 1 1 1 1 1 
1 1 1 1 1 1 1 1 1 
1 1 1 1 1 1 1 1 1 
1 1 1 1 1 1 1 1 1 
1 1 1 1 1 1 1 1 1 
1 1 1 1 1 1 1 1 1 
1 1 1 1 1 1 1 1 1 
1 1 1 1 1 1 1 1 1 
1 1 1 1 1 1 1 1 1 
1 1 1 1 1 1 1 1 1 
1 1 1 1 1 1 1 1 1 
1 1 1 1 1 1 1 1 1 
1 1 1 1 1 1 1 1 1 
1 1 1 1 1 1 1 1 1 
1 1 1 1 1 1 1 1 1 
1 1 1 1 1 1 1 1 1 
1 1 1 1 1 1 1 1 1 
1 1 1 1 1 1 1 1 1 
1 1 1 1 1 1 1 1 1 
1 1 1 1 1 1 1 1 1 
1 1 1 1 1 1 1 1 1 
1 1 1 1 1 1 1 1 1 
1 1 1 1 1 1 1 1 1 
1 1 1 1 1 1 1 1 1 
1 1 1 1 1 1 1 1 1 
1 1 1 1 1 1 1 1 1 
1 1 1 1 1 1 1 1 1 
1 1 1 1 1 1 1 1 1 
1 1 1 1 1 1 1 1 1 
1 1 1 1 1 1 1 1 1 
1 1 1 1 1 1 1 1 1 
1 1 1 1 1 1 1 1 1 
1 1 1 1 1 1 1 1 1 
1 1 1 1 1 1 1 1 1 
1 1 1 1 1 1 1 1 1 
1 1 1 1 1 1 1 1 1 
1 1 1 1 1 1 1 1 1 
1 1 1 1 1 1 1 1 1 
1 1 1 1 1 1 1 1 1 
1 1 1 1 1 1 1 1 1 
1 1 1 1 1 1 1 1 1 
1 1 1 1 1 1 1 1 1 
1 1 1 1 1 1 1 1 1 
1 1 1 1 1 1 1 1 1 
1 1 1 1 1 1 1 1 1 
1 1 1 1 1 1 1 1 1 
1 1 1 1 1 1 1 1 1 
1 1 1 1 1 1 1 1 1 
1 1 1 1 1 1 1 1 1 
1 1 1 1 1 1 1 1 1 
1 1 1 1 1 1 1 1 1 
1 1 1 1 1 1 1 1 1 
1 1 1 1 1 1 1 1 1 
1 1 1 1 1 1 1 1 1 
1 1 1 1 1 1 1 1 1 
1 1 1 1 1 1 1 1 1 
1 1 1 1 1 1 1 1 1 
1 1 1 1 1 1 1 1 1 
1 1 1 1 1 1 1 1 1 
1 1 1 1 1 1 1 1 1 
1 1 1 1 1 1 1 1 1 
1 1 1 1 1 1 1 1 1 
1 1 1 1 1 1 1 1 1 
1 1 1 1 1 1 1 1 1 
1 1 1 1 1 1 1 1 1 
1 1 1 1 1 1 1 1 1 
1 1 1 1 1 1 1 1 1 
1 1 1 1 1 1 1 1 1 
1 1 1 1 1 1 1 1 1 
1 1 1 1 1 1 1 1 1 
1 1 1 1 1 1 1 1 1 
1 1 1 1 1 1 1 1 1 
1 1 1 1 1 1 1 1 1 
1 1 1 1 1 1 1 1 1 
1 1 1 1 1 1 1 1 1 
1 1 1 1 1 1 1 1 1 
1 1 1 1 1 1 1 1 1 
1 1 1 1 1 1 1 1 1 
1 1 1 1 1 1 1 1 1 
1 1 1 1 1 1 1 1 1 
1 1 1 1 1 1 1 1 1 
1 1 1 1 1 1 1 1 1 
1 1 1 1 1 1 1 1 1 
1 1 1 1 1 1 1 1 1 
1 1 1 1 1 1 1 1 1 
1 1 1 1 1 1 1 1 1 
1 1 1 1 1 1 1 1 1 
1 1 1 1 1 1 1 1 1 
1 1 1 1 1 1 1 1 1 
1 1 1 1 1 1 1 1 1 
1 1 1 1 1 1 1 1 1 
1 1 1 1 1 1 1 1 1 
1 1 1 1 1 1 1 1 1 
1 1 1 1 1 1 1 1 1 
1 1 1 1 1 1 1 1 1 
1 1 1 1 1 1 1 1 1 
1 1 1 1 1 1 1 1 1 
1 1 1 1 1 1 1 1 1 
1 1 1 1 1 1 1 1 1 
1 1 1 1 1 1 1 1 1 
1 1 1 1 1 1 1 1 1 
1 1 1 1 1 1 1 1 1 
1 1 1 1 1 1 1 1 1 
1 1 1 1 1 1 1 1 1 
1 1 1 1 1 1 1 1 1 
1 1 1 1 1 1 1 1 1 
1 1 1 1 1 1 1 1 1 
1 1 1 1 1 1 1 1 1 
1 1 1 1 1 1 1 1 1 
1 1 1 1 1 1 1 1 1 
1 1 1 1 1 1 1 1 1 
1 1 1 1 1 1 1 1 1 
1 1 1 1 1 1 1 1 1 
1 1 1 1 1 1 1 1 1 
1 1 1 1 1 1 1 1 1 
1 1 1 1 1 1 1 1 1 
1 1 1 1 1 1 1 1 1 
1 1 1 1 1 1 1 1 1 
1 1 1 1 1 1 1 1 1 
1 1 1 1 1 1 1 1 1 
1 1 1 1 1 1 1 1 1 
1 1 1 1 1 1 1 1 1 
1 1 1 1 1 1 1 1 1 
1 1 1 1 1 1 1 1 1 
1 1 1 1 1 1 1 1 1 
1 1 1 1 1 1 1 1 1 
1 1 1 1 1 1 1 1 1 
1 1 1 1 1 1 1 1 1 
1 1 1 1 1 1 1 1 1 
1 1 1 1 1 1 1 1 1 
1 1 1 1 1 1 1 1 1 
1 1 1 1 1 1 1 1 1 
1 1 1 1 1 1 1 1 1 
1 1 1 1 1 1 1 1 1 
1 1 1 1 1 1 1 1 1 
1 1 1 1 1 1 1 1 1 
1 1 1 1 1 1 1 1 1 
1 1 1 1 1 1 1 1 1 
1 1 1 1 1 1 1 1 1 
1 1 1 1 1 1 1 1 1 
1 1 1 1 1 1 1 1 1 
1 1 1 1 1 1 1 1 1 
1 1 1 1 1 1 1 1 1 
1 1 1 1 1 1 1 1 1 
1 1 1 1 1 1 1 1 1 
1 1 1 1 1 1 1 1 1 
1 1 1 1 1 1 1 1 1 
1 1 1 1 1 1 1 1 1 
1 1 1 1 1 1 1 1 1 
1 1 1 1 1 1 1 1 1 
1 1 1 1 1 1 1 1 1 
1 1 1 1 1 1 1 1 1 
1 1 1 1 1 1 1 1 1 
1 1 1 1 1 1 1 1 1 
1 1 1 1 1 1 1 1 1 
1 1 1 1 1 1 1 1 1 
1 1 1 1 1 1 1 1 1 
1 1 1 1 1 1 1 1 1 
1 1 1 1 1 1 1 1 1 
1 1 1 1 1 1 1 1 1 
1 1 1 1 1 1 1 1 1 
1 1 1 1 1 1 1 1 1 
1 1 1 1 1 1 1 1 1 
1 1 1 1 1 1 1 1 1 
1 1 1 1 1 1 1 1 1 
1 1 1 1 1 1 1 1 1 
1 1 1 1 1 1 1 1 1 
1 1 1 1 1 1 1 1 1 
1 1 1 1 1 1 1 1 1 
1 1 1 1 1 1 1 1 1 
1 1 1 1 1 1 1 1 1 
1 1 1 1 1 1 1 1 1 
1 1 1 1 1 1 1 1 1 
1 1 1 1 1 1 1 1 1 
1 1 1 1 1 1 1 1 1 
1 1 1 1 1 1 1 1 1 
1 1 1 1 1 1 1 1 1 
1 1 1 1 1 1 1 1 1 
1 1 1 1 1 1 1 1 1 
1 1 1 1 1 1 1 1 1 
1 1 1 1 1 1 1 1 1 
1 1 1 1 1 1 1 1 1 
1 1 1 1 1 1 1 1 1 
1 1 1 1 1 1 1 1 1 
1 1 1 1 1 1 1 1 1 
1 1 1 1 1 1 1 1 1 
1 1 1 1 1 1 1 1 1 
1 1 1 1 1 1 1 1 1 
1 1 1 1 1 1 1 1 1 
1 1 1 1 1 1 1 1 1 
1 1 1 1 1 1 1 1 1 
1 1 1 1 1 1 1 1 1 
1 1 1 1 1 1 1 1 1 
1 1 1 1 1 1 1 1 1 
1 1 1 1 1 1 1 1 1 
1 1 1 1 1 1 1 1 1 
1 1 1 1 1 1 1 1 1 
1 1 1 1 1 1 1 1 1 
1 1 1 1 1 1 1 1 1 
1 1 1 1 1 1 1 1 1 
1 1 1 1 1 1 1 1 1 
1 1 1 1 1 1 1 1 1 
1 1 1 1 1 1 1 1 1 
1 1 1 1 1 1 1 1 1 
1 1 1 1 1 1 1 1 1 
1 1 1 1 1 1 1 1 1 
1 1 1 1 1 1 1 1 1 
1 1 1 1 1 1 1 1 1 
1 1 1 1 1 1 1 1 1 
1 1 1 1 1 1 1 1 1 
1 1 1 1 1 1 1 1 1 
1 1 1 1 1 1 1 1 1 
1 1 1 1 1 1 1 1 1 
1 1 1 1 1 1 1 1 1 
1 1 1 1 1 1 1 1 1 
1 1 1 1 1 1 1 1 1 
1 1 1 1 1 1 1 1 1 
1 1 1 1 1 1 1 1 1 
1 1 1 1 1 1 1 1 1 
1 1 1 1 1 1 1 1 1 
1 1 1 1 1 1 1 1 1 
1 1 1 1 1 1 1 1 1 
1 1 1 1 1 1 1 1 1 
1 1 1 1 1 1 1 1 1 
1 1 1 1 1 1 1 1 1 
1 1 1 1 1 1 1 1 1 
1 1 1 1 1 1 1 1 1 
1 1 1 1 1 1 1 1 1 
1 1 1 1 1 1 1 1 1 
1 1 1 1 1 1 1 1 1 
1 1 1 1 1 1 1 1 1 
1 1 1 1 1 1 1 1 1 
1 1 1 1 1 1 1 1 1 
1 1 1 1 1 1 1 1 1 
1 1 1 1 1 1 1 1 1 
1 1 1 1 1 1 1 1 1 
1 1 1 1 1 1 1 1 1 
1 1 1 1 1 1 1 1 1 
1 1 1 1 1 1 1 1 1 
1 1 1 1 1 1 1 1 1 
1 1 1 1 1 1 1 1 1 
1 1 1 1 1 1 1 1 1 
1 1 1 1 1 1 1 1 1 
1 1 1 1 1 1 1 1 1 
1 1 1 1 1 1 1 1 1 
1 1 1 1 1 1 1 1 1 
1 1 1 1 1 1 1 1 1 
1 1 1 1 1 1 1 1 1 
1 1 1 1 1 1 1 1 1 
1 1 1 1 1 1 1 1 1 
1 1 1 1 1 1 1 1 1 
1 1 1 1 1 1 1 1 1 
1 1 1 1 1 1 1 1 1 
1 1 1 1 1 1 1 1 1 
1 1 1 1 1 1 1 1 1 
1 1 1 1 1 1 1 1 1 
1 1 1 1 1 1 1 1 1 
1 1 1 1 1 1 1 1 1 
1 1 1 1 1 1 1 1 1 
1 1 1 1 1 1 1 1 1 
1 1 1 1 1 1 1 1 1 
1 1 1 1 1 1 1 1 1 
1 1 1 1 1 1 1 1 1 
1 1 1 1 1 1 1 1 1 
1 1 1 1 1 1 1 1 1 
1 1 1 1 1 1 1 1 1 
1 1 1 1 1 1 1 1 1 
1 1 1 1 1 1 1 1 1 
1 1 1 1 1 1 1 1 1 
1 1 1 1 1 1 1 1 1 
1 1 1 1 1 1 1 1 1 
1 1 1 1 1 1 1 1 1 
1 1 1 1 1 1 1 1 1 
1 1 1 1 1 1 1 1 1 
1 1 1 1 1 1 1 1 1 
1 1 1 1 1 1 1 1 1 
1 1 1 1 1 1 1 1 1 
1 1 1 1 1 1 1 1 1 
1 1 1 1 1 1 1 1 1 
1 1 1 1 1 1 1 1 1 
1 1 1 1 1 1 1 1 1 
1 1 1 1 1 1 1 1 1 
1 1 1 1 1 1 1 1 1 
1 1 1 1 1 1 1 1 1 
1 1 1 1 1 1 1 1 1 
1 1 1 1 1 1 1 1 1 
1 1 1 1 1 1 1 1 1 
1 1 1 1 1 1 1 1 1 
1 1 1 1 1 1 1 1 1 
1 1 1 1 1 1 1 1 1 
1 1 1 1 1 1 1 1 1 
1 1 1 1 1 1 1 1 1 
1 1 1 1 1 1 1 1 1 
1 1 1 1 1 1 1 1 1 
1 1 1 1 1 1 1 1 1 
1 1 1 1 1 1 1 1 1 
1 1 1 1 1 1 1 1 1 
1 1 1 1 1 1 1 1 1 
1 1 1 1 1 1 1 1 1 
1 1 1 1 1 1 1 1 1 
1 1 1 1 1 1 1 1 1 
1 1 1 1 1 1 1 1 1 
1 1 1 1 1 1 1 1 1 
1 1 1 1 1 1 1 1 1 
1 1 1 1 1 1 1 1 1 
1 1 1 1 1 1 1 1 1 
1 1 1 1 1 1 1 1 1 
1 1 1 1 1 1 1 1 1 
1 1 1 1 1 1 1 1 1 
1 1 1 1 1 1 1 1 1 
1 1 1 1 1 1 1 1 1 
1 1 1 1 1 1 1 1 1 
1 1 1 1 1 1 1 1 1 
1 1 1 1 1 1 1 1 1 
1 1 1 1 1 1 1 1 1 
1 1 1 1 1 1 1 1 1 
1 1 1 1 1 1 1 1 1 
1 1 1 1 1 1 1 1 1 
1 1 1 1 1 1 1 1 1 
1 1 1 1 1 1 1 1 1 
1 1 1 1 1 1 1 1 1 
1 1 1 1 1 1 1 1 1 
1 1 1 1 1 1 1 1 1 
1 1 1 1 1 1 1 1 1 
1 1 1 1 1 1 1 1 1 
1 1 1 1 1 1 1 1 1 
1 1 1 1 1 1 1 1 1 
1 1 1 1 1 1 1 1 1 
1 1 1 1 1 1 1 1 1 
1 1 1 1 1 1 1 1 1 
1 1 1 1 1 1 1 1 1 
1 1 1 1 1 1 1 1 1 
1 1 1 1 1 1 1 1 1 
1 1 1 1 1 1 1 1 1 
1 1 1 1 1 1 1 1 1 
1 1 1 1 1 1 1 1 1 
1 1 1 1 1 1 1 1 1 
1 1 1 1 1 1 1 1 1 
1 1 1 1 1 1 1 1 1 
1 1 1 1 1 1 1 1 1 
1 1 1 1 1 1 1 1 1 
1 1 1 1 1 1 1 1 1 
1 1 1 1 1 1 1 1 1 
1 1 1 1 1 1 1 1 1 
1 1 1 1 1 1 1 1 1 
1 1 1 1 1 1 1 1 1 
1 1 1 1 1 1 1 1 1 
1 1 1 1 1 1 1 1 1 
1 1 1 1 1 1 1 1 1 
1 1 1 1 1 1 1 1 1 
1 1 1 1 1 1 1 1 1 
1 1 1 1 1 1 1 1 1 
1 1 1 1 1 1 1 1 1 
1 1 1 1 1 1 1 1 1 
1 1 1 1 1 1 1 1 1 
1 1 1 1 1 1 1 1 1 
1 1 1 1 1 1 1 1 1 
1 1 1 1 1 1 1 1 1 
1 1 1 1 1 1 1 1 1 
1 1 1 1 1 1 1 1 1 
1 1 1 1 1 1 1 1 1 
1 1 1 1 1 1 1 1 1 
1 1 1 1 1 1 1 1 1 
1 1 1 1 1 1 1 1 1 
1 1 1 1 1 1 1 1 1 
1 1 1 1 1 1 1 1 1 
1 1 1 1 1 1 1 1 1 
1 1 1 1 1 1 1 1 1 
1 1 1 1 1 1 1 1 1 
1 1 1 1 1 1 1 1 1 
1 1 1 1 1 1 1 1 1 
1 1 1 1 1 1 1 1 1 
1 1 1 1 1 1 1 1 1 
1 1 1 1 1 1 1 1 1 
1 1 1 1 1 1 1 1 1 
1 1 1 1 1 1 1 1 1 
1 1 1 1 1 1 1 1 1 
1 1 1 1 1 1 1 1 1 
1 1 1 1 1 1 1 1 1 
1 1 1 1 1 1 1 1 1 
1 1 1 1 1 1 1 1 1 
1 1 1 1 1 1 1 1 1 
1 1 1 1 1 1 1 1 1 
1 1 1 1 1 1 1 1 1 
1 1 1 1 1 1 1 1 1 
1 1 1 1 1 1 1 1 1 
1 1 1 1 1 1 1 1 1 
1 1 1 1 1 1 1 1 1 
1 1 1 1 1 1 1 1 1 
1 1 1 1 1 1 1 1 1 
1 1 1 1 1 1 1 1 1 
1 1 1 1 1 1 1 1 1 
1 1 1 1 1 1 1 1 1 
1 1 1 1 1 1 1 1 1 
1 1 1 1 1 1 1 1 1 
1 1 1 1 1 1 1 1 1 
1 1 1 1 1 1 1 1 1 
1 1 1 1 1 1 1 1 1 
1 1 1 1 1 1 1 1 1 
1 1 1 1 1 1 1 1 1 
1 1 1 1 1 1 1 1 1 
1 1 1 1 1 1 1 1 1 
1 1 1 1 1 1 1 1 1 
1 1 1 1 1 1 1 1 1 
1 1 1 1 1 1 1 1 1 
1 1 1 1 1 1 1 1 1 
1 1 1 1 1 1 1 1 1 
1 1 1 1 1 1 1 1 1 
1 1 1 1 1 1 1 1 1 
1 1 1 1 1 1 1 1 1 
1 1 1 1 1 1 1 1 1 
1 1 1 1 1 1 1 1 1 
1 1 1 1 1 1 1 1 1 
1 1 1 1 1 1 1 1 1 
1 1 1 1 1 1 1 1 1 
1 1 1 1 1 1 1 1 1 
1 1 1 1 1 1 1 1 1 
1 1 1 1 1 1 1 1 1 
1 1 1 1 1 1 1 1 1 
1 1 1 1 1 1 1 1 1 
1 1 1 1 1 1 1 1 1 
1 1 1 1 1 1 1 1 1 
1 1 1 1 1 1 1 1 1 
1 1 1 1 1 1 1 1 1 
1 1 1 1 1 1 1 1 1 
1 1 1 1 1 1 1 1 1 
1 1 1 1 1 1 1 1 1 
1 1 1 1 1 1 1 1 1 
1 1 1 1 1 1 1 1 1 
1 1 1 1 1 1 1 1 1 
1 1 1 1 1 1 1 1 1 
1 1 1 1 1 1 1 1 1 
1 1 1 1 1 1 1 1 1 
1 1 1 1 1 1 1 1 1 
1 1 1 1 1 1 1 1 1 
1 1 1 1 1 1 1 1 1 
1 1 1 1 1 1 1 1 1 
1 1 1 1 1 1 1 1 1 
1 1 1 1 1 1 1 1 1 
1 1 1 1 1 1 1 1 1 
1 1 1 1 1 1 1 1 1 
1 1 1 1 1 1 1 1 1 
1 1 1 1 1 1 1 1 1 
1 1 1 1 1 1 1 1 1 
1 1 1 1 1 1 1 1 1 
1 1 1 1 1 1 1 1 1 
1 1 1 1 1 1 1 1 1 
1 1 1 1 1 1 1 1 1 
1 1 1 1 1 1 1 1 1 
1 1 1 1 1 1 1 1 1 
1 1 1 1 1 1 1 1 1 
1 1 1 1 1 1 1 1 1 
1 1 1 1 1 1 1 1 1 
1 1 1 1 1 1 1 1 1 
1 1 1 1 1 1 1 1 1 
1 1 1 1 1 1 1 1 1 
1 1 1 1 1 1 1 1 1 
1 1 1 1 1 1 1 1 1 
1 1 1 1 1 1 1 1 1 
1 1 1 1 1 1 1 1 1 
1 1 1 1 1 1 1 1 1 
1 1 1 1 1 1 1 1 1 
1 1 1 1 1 1 1 1 1 
1 1 1 1 1 1 1 1 1 
1 1 1 1 1 1 1 1 1 
1 1 1 1 1 1 1 1 1 
1 1 1 1 1 1 1 1 1 
1 1 1 1 1 1 1 1 1 
1 1 1 1 1 1 1 1 1 
1 1 1 1 1 1 1 1 1 
1 1 1 1 1 1 1 1 1 
1 1 1 1 1 1 1 1 1 
1 1 1 1 1 1 1 1 1 
1 1 1 1 1 1 1 1 1 
1 1 1 1 1 1 1 1 1 
1 1 1 1 1 1 1 1 1 
1 1 1 1 1 1 1 1 1 
1 1 1 1 1 1 1 1 1 
1 1 1 1 1 1 1 1 1 
1 1 1 1 1 1 1 1 1 
1 1 1 1 1 1 1 1 1 
1 1 1 1 1 1 1 1 1 
1 1 1 1 1 1 1 1 1 
1 1 1 1 1 1 1 1 1 
1 1 1 1 1 1 1 1 1 
1 1 1 1 1 1 1 1 1 
1 1 1 1 1 1 1 1 1 
1 1 1 1 1 1 1 1 1 
1 1 1 1 1 1 1 1 1 
1 1 1 1 1 1 1 1 1 
1 1 1 1 1 1 1 1 1 
1 1 1 1 1 1 1 1 1 
1 1 1 1 1 1 1 1 1 
1 1 1 1 1 1 1 1 1 
1 1 1 1 1 1 1 1 1 
1 1 1 1 1 1 1 1 1 
1 1 1 1 1 1 1 1 1 
1 1 1 1 1 1 1 1 1 
1 1 1 1 1 1 1 1 1 
1 1 1 1 1 1 1 1 1 
1 1 1 1 1 1 1 1 1 
1 1 1 1 1 1 1 1 1 
1 1 1 1 1 1 1 1 1 
1 1 1 1 1 1 1 1 1 
1 1 1 1 1 1 1 1 1 
1 1 1 1 1 1 1 1 1 
1 1 1 1 1 1 1 1 1 
1 1 1 1 1 1 1 1 1 
1 1 1 1 1 1 1 1 1 
1 1 1 1 1 1 1 1 1 
1 1 1 1 1 1 1 1 1 
1 1 1 1 1 1 1 1 1 
1 1 1 1 1 1 1 1 1 
1 1 1 1 1 1 1 1 1 
1 1 1 1 1 1 1 1 1 
1 1 1 1 1 1 1 1 1 
1 1 1 1 1 1 1 1 1 
1 1 1 1 1 1 1 1 1 
1 1 1 1 1 1 1 1 1 
1 1 1 1 1 1 1 1 1 
1 1 1 1 1 1 1 1 1 
1 1 1 1 1 1 1 1 1 
1 1 1 1 1 1 1 1 1 
1 1 1 1 1 1 1 1 1 
1 1 1 1 1 1 1 1 1 
1 1 1 1 1 1 1 1 1 
1 1 1 1 1 1 1 1 1 
1 1 1 1 1 1 1 1 1 
1 1 1 1 1 1 1 1 1 
1 1 1 1 1 1 1 1 1 
1 1 1 1 1 1 1 1 1 
1 1 1 1 1 1 1 1 1 
1 1 1 1 1 1 1 1 1 
1 1 1 1 1 1 1 1 1 
1 1 1 1 1 1 1 1 1 
1 1 1 1 1 1 1 1 1 
1 1 1 1 1 1 1 1 1 
1 1 1 1 1 1 1 1 1 
1 1 1 1 1 1 1 1 1 
1 1 1 1 1 1 1 1 1 
1 1 1 1 1 1 1 1 1 
1 1 1 1 1 1 1 1 1 
1 1 1 1 1 1 1 1 1 
1 1 1 1 1 1 1 1 1 
1 1 1 1 1 1 1 1 1 
1 1 1 1 1 1 1 1 1 
1 1 1 1 1 1 1 1 1 
1 1 1 1 1 1 1 1 1 
1 1 1 1 1 1 1 1 1 
1 1 1 1 1 1 1 1 1 
1 1 1 1 1 1 1 1 1 
1 1 1 1 1 1 1 1 1 
1 1 1 1 1 1 1 1 1 
1 1 1 1 1 1 1 1 1 
1 1 1 1 1 1 1 1 1 
1 1 1 1 1 1 1 1 1 
1 1 1 1 1 1 1 1 1 
1 1 1 1 1 1 1 1 1 
1 1 1 1 1 1 1 1 1 
1 1 1 1 1 1 1 1 1 
1 1 1 1 1 1 1 1 1 
1 1 1 1 1 1 1 1 1 
1 1 1 1 1 1 1 1 1 
1 1 1 1 1 1 1 1 1 
1 1 1 1 1 1 1 1 1 
1 1 1 1 1 1 1 1 1 
1 1 1 1 1 1 1 1 1 
1 1 1 1 1 1 1 1 1 
1 1 1 1 1 1 1 1 1 
1 1 1 1 1 1 1 1 1 
1 1 1 1 1 1 1 1 1 
1 1 1 1 1 1 1 1 1 
1 1 1 1 1 1 1 1 1 
1 1 1 1 1 1 1 1 1 
1 1 1 1 1 1 1 1 1 
1 1 1 1 1 1 1 1 1 
1 1 1 1 1 1 1 1 1 
1 1 1 1 1 1 1 1 1 
1 1 1 1 1 1 1 1 1 
1 1 1 1 1 1 1 1 1 
1 1 1 1 1 1 1 1 1 
1 1 1 1 1 1 1 1 1 
1 1 1 1 1 1 1 1 1 
1 1 1 1 1 1 1 1 1 
1 1 1 1 1 1 1 1 1 
1 1 1 1 1 1 1 1 1 
1 1 1 1 1 1 1 1 1 
1 1 1 1 1 1 1 1 1 
1 1 1 1 1 1 1 1 1 
1 1 1 1 1 1 1 1 1 
1 1 1 1 1 1 1 1 1 
1 1 1 1 1 1 1 1 1 
1 1 1 1 1 1 1 1 1 
1 1 1 1 1 1 1 1 1 
1 1 1 1 1 1 1 1 1 
1 1 1 1 1 1 1 1 1 
1 1 1 1 1 1 1 1 1 
1 1 1 1 1 1 1 1 1 
1 1 1 1 1 1 1 1 1 
1 1 1 1 1 1 1 1 1 
1 1 1 1 1 1 1 1 1 
1 1 1 1 1 1 1 1 1 
1 1 1 1 1 1 1 1 1 
1 1 1 1 1 1 1 1 1 
1 1 1 1 1 1 1 1 1 
1 1 1 1 1 1 1 1 1 
1 1 1 1 1 1 1 1 1 
1 1 1 1 1 1 1 1 1 
1 1 1 1 1 1 1 1 1 
1 1 1 1 1 1 1 1 1 
1 1 1 1 1 1 1 1 1 
1 1 1 1 1 1 1 1 1 
1 1 1 1 1 1 1 1 1 
1 1 1 1 1 1 1 1 1 
1 1 1 1 1 1 1 1 1 
1 1 1 1 1 1 1 1 1 
1 1 1 1 1 1 1 1 1 
1 1 1 1 1 1 1 1 1 
1 1 1 1 1 1 1 1 1 
1 1 1 1 1 1 1 1 1 
1 1 1 1 1 1 1 1 1 
1 1 1 1 1 1 1 1 1 
1 1 1 1 1 1 1 1 1 
1 1 1 1 1 1 1 1 1 
1 1 1 1 1 1 1 1 1 
1 1 1 1 1 1 1 1 1 
1 1 1 1 1 1 1 1 1 
1 1 1 1 1 1 1 1 1 
1 1 1 1 1 1 1 1 1 
1 1 1 1 1 1 1 1 1 
1 1 1 1 1 1 1 1 1 
1 1 1 1 1 1 1 1 1 
1 1 1 1 1 1 1 1 1 
1 1 1 1 1 1 1 1 1 
1 1 1 1 1 1 1 1 1 
1 1 1 1 1 1 1 1 1 
1 1 1 1 1 1 1 1 1 
1 1 1 1 1 1 1 1 1 
1 1 1 1 1 1 1 1 1 
1 1 1 1 1 1 1 1 1 
1 1 1 1 1 1 1 1 1 
1 1 1 1 1 1 1 1 1 
1 1 1 1 1 1 1 1 1 
1 1 1 1 1 1 1 1 1 
1 1 1 1 1 1 1 1 1 
1 1 1 1 1 1 1 1 1 
1 1 1 1 1 1 1 1 1 
1 1 1 1 1 1 1 1 1 
1 1 1 1 1 1 1 1 1 
1 1 1 1 1 1 1 1 1 
1 1 1 1 1 1 1 1 1 
1 1 1 1 1 1 1 1 1 
1 1 1 1 1 1 1 1 1 
1 1 1 1 1 1 1 1 1 
1 1 1 1 1 1 1 1 1 
1 1 1 1 1 1 1 1 1 
1 1 1 1 1 1 1 1 1 
1 1 1 1 1 1 1 1 1 
1 1 1 1 1 1 1 1 1 
1 1 1 1 1 1 1 1 1 
1 1 1 1 1 1 1 1 1 
1 1 1 1 1 1 1 1 1 
1 1 1 1 1 1 1 1 1 
1 1 1 1 1 1 1 1 1 
1 1 1 1 1 1 1 1 1 
1 1 1 1 1 1 1 1 1 
1 1 1 1 1 1 1 1 1 
1 1 1 1 1 1 1 1 1 
1 1 1 1 1 1 1 1 1 
1 1 1 1 1 1 1 1 1 
1 1 1 1 1 1 1 1 1 
1 1 1 1 1 1 1 1 1 
1 1 1 1 1 1 1 1 1 
1 1 1 1 1 1 1 1 1 
1 1 1 1 1 1 1 1 1 
1 1 1 1 1 1 1 1 1 
1 1 1 1 1 1 1 1 1 
1 1 1 1 1 1 1 1 1 
1 1 1 1 1 1 1 1 1 
1 1 1 1 1 1 1 1 1 
1 1 1 1 1 1 1 1 1 
1 1 1 1 1 1 1 1 1 
1 1 1 1 1 1 1 1 1 
1 1 1 1 1 1 1 1 1 
1 1 1 1 1 1 1 1 1 
1 1 1 1 1 1 1 1 1 
1 1 1 1 1 1 1 1 1 
1 1 1 1 1 1 1 1 1 
1 1 1 1 1 1 1 1 1 
1 1 1 1 1 1 1 1 1 
1 1 1 1 1 1 1 1 1 
1 1 1 1 1 1 1 1 1 
1 1 1 1 1 1 1 1 1 
1 1 1 1 1 1 1 1 1 
1 1 1 1 1 1 1 1 1 
1 1 1 1 1 1 1 1 1 
1 1 1 1 1 1 1 1 1 
1 1 1 1 1 1 1 1 1 
1 1 1 1 1 1 1 1 1 
1 1 1 1 1 1 1 1 1 
1 1 1 1 1 1 1 1 1 
1 1 1 1 1 1 1 1 1 
1 1 1 1 1 1 1 1 1 
1 1 1 1 1 1 1 1 1 
1 1 1 1 1 1 1 1 1 
1 1 1 1 1 1 1 1 1 
1 1 1 1 1 1 1 1 1 
1 1 1 1 1 1 1 1 1 
1 1 1 1 1 1 1 1 1 
1 1 1 1 1 1 1 1 1 
1 1 1 1 1 1 1 1 1 
1 1 1 1 1 1 1 1 1 
1 1 1 1 1 1 1 1 1 
1 1 1 1 1 1 1 1 1 
1 1 1 1 1 1 1 1 1 
1 1 1 1 1 1 1 1 1 
1 1 1 1 1 1 1 1 1 
1 1 1 1 1 1 1 1 1 
1 1 1 1 1 1 1 1 1 
1 1 1 1 
NORMALS normals float
-0.0169443 -0.0169443 -0.999713 -0.011984 -0.707056 -0.707056 -0.707056 -0.011984 -0.707056 
0.0169467 0 -0.999856 0.012086 -0.700986 -0.713072 0.707107 0 -0.707107 
0 -0.0169467 -0.999856 0 -0.707107 -0.707107 -0.700986 -0.012086 -0.713072 
0.570771 -0.580612 -0.580612 0 0 -1 -0.574032 -0.574032 -0.583929 
0.574032 0.574032 -0.583929 0.580612 0.570771 -0.580612 -0.0169443 0.0169443 -0.999713 
-0.707056 0.011984 -0.707056 0.574032 -0.574032 -0.583929 0 0 -1 
0 0 -1 0 -0.701038 -0.713124 0 0 -1 
-0.574032 -0.574032 -0.583929 0.0169443 0.0169443 -0.999713 0.707056 0.011984 -0.707056 
-0.011984 0.707056 -0.707056 0 0.701038 -0.713124 0 0.701038 -0.713124 
0 0.701038 -0.713124 0.011984 0.707056 -0.707056 -0.0169467 0 -0.999856 
-0.012086 -0.700986 -0.713072 -0.999856 0 -0.0169467 0.0169443 -0.0169443 -0.999713 
0.011984 -0.707056 -0.707056 0.707056 -0.011984 -0.707056 -0.580612 0.570771 -0.580612 
-0.574032 0.574032 -0.583929 0 0 -1 0.701038 0 -0.713124 
0 0 -1 -0.701038 0 -0.713124 0.701038 0 -0.713124 
0 0.0169467 -0.999856 -0.700986 0.012086 -0.713072 0.577293 -0.56734 -0.587246 
-0.570771 0.580612 -0.580612 0.56734 -0.577293 -0.587246 -0.580612 0.570771 -0.580612 
-0.0169467 0 -0.999856 0.0169443 -0.0169443 -0.999713 0.011984 -0.707056 -0.707056 
0.707056 -0.011984 -0.707056 -0.580612 0.570771 -0.580612 -0.570771 0.580612 -0.580612 
0 0.0169467 -0.999856 0.577293 -0.56734 -0.587246 -0.570771 0.580612 -0.580612 
0.56734 -0.577293 -0.587246 -0.580612 0.570771 -0.580612 -0.0169467 0 -0.999856 
0 0 -1 0 -0.701038 -0.713124 0 0 -1 
0 -0.701038 -0.713124 0 0 -1 0 -0.701038 -0.713124 
0.0169467 0 -0.999856 0.012086 -0.700986 -0.713072 0.707107 0 -0.707107 
-0.012086 0.700986 -0.713072 0 0.701038 -0.713124 0 0.701038 -0.713124 
0 0.701038 -0.713124 0.012086 0.700986 -0.713072 -0.0169443 -0.0169443 -0.999713 
-0.0169443 -0.999713 -0.0169443 -0.57735 -0.57735 -0.57735 0 -0.0169467 -0.999856 
0 -0.999856 -0.0169467 0 -0.0169467 -0.999856 0 -0.999856 -0.0169467 
0 -0.707107 -0.707107 0 -0.999856 -0.0169467 0 -0.707107 -0.707107 
0 -0.999856 -0.0169467 0.0169443 -0.0169443 -0.999713 0.0169443 -0.999713 -0.0169443 
0.999713 -0.0169443 -0.0169443 -0.011984 -0.707056 -0.707056 -0.57735 -0.57735 -0.57735 
-0.57735 -0.57735 -0.57735 0 0 -1 0 0 -1 
-0.701038 0 -0.713124 0.707107 0 -0.707107 0.999856 0 -0.0169467 
-0.0169443 -0.0169443 -0.999713 -0.011984 -0.707056 -0.707056 -0.57735 -0.57735 -0.57735 
0 -0.0169467 -0.999856 0 -0.707107 -0.707107 0 -0.0169467 -0.999856 
0 -0.707107 -0.707107 0 -0.0169467 -0.999856 0 -0.707107 -0.707107 
-0.700986 -0.012086 -0.713072 -0.570771 -0.580612 -0.580612 0.574032 -0.574032 -0.583929 
0 -0.701038 -0.713124 -0.574032 -0.574032 -0.583929 0.574032 0.574032 -0.583929 
0.0169467 0 -0.999856 0.999856 0 -0.0169467 -0.0169443 -0.0169443 -0.999713 
-0.57735 -0.57735 -0.57735 -0.57735 -0.57735 -0.57735 0 0 -1 
0 0 -1 0 0 -1 0 0 -1 
-0.701038 0 -0.713124 0.701038 0 -0.713124 0.0169467 0 -0.999856 
0.999856 0 -0.0169467 -0.011984 -0.707056 -0.707056 -0.57735 -0.57735 -0.57735 
-0.707056 -0.011984 -0.707056 0 -0.701038 -0.713124 0 0 -1 
0 0 -1 0 0 -1 0 0 -1 
0 0 -1 0 0.701038 -0.713124 0 0.701038 -0.713124 
0 0.701038 -0.713124 0 0.701038 -0.713124 0 0.701038 -0.713124 
0 0 -1 0.0169443 0.0169443 -0.999713 0.999713 0.0169443 -0.0169443 
-1 0 0 0.701038 0 -0.713124 0 0 -1 
0 0 -1 0 0 -1 0 0 -1 
0 0 -1 0 0 -1 0 0 -1 
0 0 -1 0 0 -1 0.0169443 0.0169443 -0.999713 
0.707056 0.707056 -0.011984 0.707056 0.707056 -0.011984 -0.580612 0.570771 -0.580612 
-0.999856 0 -0.0169467 0.701038 0 -0.713124 0 0 -1 
0 0 -1 0 0 -1 0 0 -1 
0 0 -1 0 0 -1 0 0 -1 
0 0 -1 0.0169467 0 -0.999856 0.713072 0.700986 -0.012086 
0.707056 0.707056 -0.011984 -0.707107 0 -0.707107 -0.999856 0 -0.0169467 
0.701038 0 -0.713124 0 0 -1 0 0 -1 
0 0 -1 0 0 -1 0 0 -1 
0 0 -1 0 0 -1 0 0 -1 
0.0169467 0 -0.999856 0.999856 0 -0.0169467 -0.707107 0 -0.707107 
-0.999856 0 -0.0169467 0.574032 -0.574032 -0.583929 0 -0.701038 -0.713124 
0 0 -1 0 0 -1 0 0 -1 
0 0 -1 0 0 -1 0 0 -1 
0 0 -1 0.0169443 0.0169443 -0.999713 0.999713 0.0169443 -0.0169443 
-0.0169443 0.0169443 -0.999713 -0.999713 0.0169443 -0.0169443 -0.570771 0.580612 -0.580612 
0.701038 0 -0.713124 0 0 -1 0 0 -1 
0 0 -1 0 0 -1 0 0 -1 
0.0169443 0.0169443 -0.999713 0.707056 0.707056 -0.011984 0.707056 0.707056 -0.011984 
-0.0169443 0.999713 -0.0169443 -0.570771 0.580612 -0.580612 -0.580612 0.570771 -0.580612 
-0.580612 0.570771 -0.580612 0.574032 -0.574032 -0.583929 0 -0.701038 -0.713124 
0 -0.701038 -0.713124 0 -0.701038 -0.713124 0 -0.701038 -0.713124 
0.0169467 0 -0.999856 0.713072 0.700986 -0.012086 0.707056 0.707056 -0.011984 