# vtk DataFile Version 3.0
vtk output
ASCII
DATASET POLYDATA
POINTS 4348 float
116 157 48.1 116 156.1 49 115.1 157 49 
116.9 157 49 116 158 48.1 115.1 158 49 
116.9 158 49 116 159 48.1 115.1 159 49 
116.9 159 49 116 160 48.1 115.1 160 49 
116.9 160 49 114 161 48.1 114 160.1 49 
113.1 161 49 115 161 48.1 115 160.1 49 
116 161 48.1 116.9 161 49 114 162 48.1 
113.1 162 49 114.9 162 49 115 161.9 49 
116 161.9 49 112 163 48.1 112 162.1 49 
111.1 163 49 113 163 48.1 113 162.1 49 
114 163 48.1 114.9 163 49 112 164 48.1 
111.1 164 49 112.9 164 49 113 163.9 49 
114 163.9 49 112 165 48.1 111.1 165 49 
112.9 165 49 112 166 48.1 111.1 166 49 
112.9 166 49 111 167 48.1 111 166.1 49 
110.1 167 49 112 167 48.1 112.9 167 49 
111 167.9 49 112 167.9 49 113 154 49.1 
113 153.1 50 112.1 154 50 114 154 49.1 
114 153.1 50 114.9 154 50 113 155 49.1 
112.1 155 50 114 155 49.1 114.9 155 50 
113 156 49.1 112.1 156 50 114 156 49.1 
115 155.1 50 115 156 49.1 116 156 49.1 
116 155.1 50 116.9 156 50 113 157 49.1 
112.1 157 50 114 157 49.1 115 157 49.1 
116.9 157 50 113 158 49.1 112.1 158 50 
114 158 49.1 115 158 49.1 117 157.1 50 
117 158 49.1 118 158 49.1 118 157.1 50 
118.9 158 50 113 159 49.1 112.1 159 50 
114 159 49.1 115 159 49.1 117 159 49.1 
118 159 49.1 118.9 159 50 113 160 49.1 
112.1 160 50 114 160 49.1 115 160 49.1 
117 160 49.1 118 160 49.1 119 159.1 50 
119 160 49.1 120 160 49.1 120 159.1 50 
120.9 160 50 112 161 49.1 112 160.1 50 
111.1 161 50 113 161 49.1 117 161 49.1 
118 161 49.1 119 161 49.1 120 161 49.1 
120.9 161 50 111 162 49.1 111 161.1 50 
110.1 162 50 112 162 49.1 113 162 49.1 
115 162 49.1 116 162 49.1 117 162 49.1 
118 162 49.1 119 162 49.1 120 162 49.1 
120.9 162 50 111 163 49.1 110.1 163 50 
115 163 49.1 116 163 49.1 117 163 49.1 
118 163 49.1 119 163 49.1 120 163 49.1 
120.9 163 50 111 164 49.1 110.1 164 50 
113 164 49.1 114 164 49.1 115 164 49.1 
116 164 49.1 117 164 49.1 118 164 49.1 
119 164 49.1 120 164 49.1 120.9 164 50 
111 165 49.1 110.1 165 50 113 165 49.1 
114 165 49.1 115 165 49.1 116 165 49.1 
117 165 49.1 118 165 49.1 119 165 49.1 
119.9 165 50 120 164.9 50 111 166 49.1 
110.1 166 50 113 166 49.1 114 166 49.1 
115 166 49.1 116 166 49.1 117 166 49.1 
118 166 49.1 118.9 166 50 119 165.9 50 
110.1 167 50 113 167 49.1 114 167 49.1 
115 167 49.1 116 167 49.1 117 167 49.1 
117.9 167 50 118 166.9 50 111 168 49.1 
110.1 168 50 112 168 49.1 113 168 49.1 
114 168 49.1 115 168 49.1 116 168 49.1 
116.9 168 50 117 167.9 50 111 169 49.1 
110.1 169 50 112 169 49.1 113 169 49.1 
114 169 49.1 115 169 49.1 115.9 169 50 
116 168.9 50 111 170 49.1 110.1 170 50 
112 170 49.1 113 170 49.1 114 170 49.1 
114.9 170 50 115 169.9 50 110 171 49.1 
110 170.1 50 109.1 171 50 111 171 49.1 
112 171 49.1 113 171 49.1 113.9 171 50 
114 170.9 50 109 172 49.1 109 171.1 50 
108.1 172 50 110 172 49.1 111 172 49.1 
112 172 49.1 112.9 172 50 113 171.9 50 
109 173 49.1 108.1 173 50 110 173 49.1 
111 173 49.1 111.9 173 50 112 172.9 50 
109 174 49.1 108.1 174 50 110 174 49.1 
110.9 174 50 111 173.9 50 109 175 49.1 
108.1 175 50 109.9 175 50 110 174.9 50 
109 175.9 50 113 153.1 51 112.1 154 51 
114 154 50.9 113.9 154 51 112.1 155 51 
114 154.1 51 114.9 155 51 112.1 156 51 
115 155.1 51 116 156 50.9 115.9 156 51 
112.1 157 51 116 156.1 51 116.9 157 51 
112.1 158 51 117 157.1 51 118 158 50.9 
117.9 158 51 112.1 159 51 118 159 50.9 
117.9 159 51 112.1 160 51 118 159.1 51 
119 159.1 51 120 160 50.9 119.9 160 51 
112 160.1 51 111.1 161 51 120 161 50.9 
119.9 161 51 111 161.1 51 110.1 162 51 
120 162 50.9 119.9 162 51 110 163 50.1 
110 162.1 51 109.1 163 51 120 163 50.9 
119.9 163 51 110 164 50.1 109.1 164 51 
120 164 50.9 119.9 164 51 110 165 50.1 
109.1 165 51 119 165 50.9 118.9 165 51 
119 164.9 51 110 166 50.1 109.1 166 51 
118.9 166 51 110 167 50.1 109.1 167 51 
118 167 50.1 118.9 167 51 110 168 50.1 
109.1 168 51 116.9 168 51 117 167.9 51 
118 167.9 51 110 169 50.1 109.1 169 51 
116 169 50.1 116.9 169 51 110 170 50.1 
109.1 170 51 114.9 170 51 115 169.9 51 
116 169.9 51 109 171 50.1 109 170.1 51 
108.1 171 51 114 171 50.1 114.9 171 51 
108 172 50.1 108 171.1 51 107.1 172 51 
112.9 172 51 113 171.9 51 114 171.9 51 
108 173 50.1 107.1 173 51 112 173 50.1 
112.9 173 51 108 174 50.1 107.1 174 51 
110.9 174 51 111 173.9 51 112 173.9 51 
108 175 50.1 107.1 175 51 110 175 50.1 
110.9 175 51 108 176 50.1 107.1 176 51 
109 175.9 51 108.9 176 51 110 175.9 51 
108 177 50.1 107.1 177 51 108.9 177 51 
108 178 50.1 107.1 178 51 108.9 178 51 
108 179 50.1 107.1 179 51 108.9 179 51 
108 180 50.1 107.1 180 51 108.9 180 51 
106 181 50.1 106 180.1 51 105.1 181 51 
107 181 50.1 107 180.1 51 108 181 50.1 
108.9 181 51 106 182 50.1 105.1 182 51 
106.9 182 51 107 181.9 51 108 181.9 51 
105 183 50.1 105 182.1 51 104.1 183 51 
106 183 50.1 106.9 183 51 105 183.9 51 
106 183.9 51 113 154 51.9 113 155 51.9 
114 155 51.9 113 155.1 52 112.1 156 52 
114 155.1 52 115 156 51.9 114.9 156 52 
112.1 157 52 115 157 51.9 114.9 157 52 
116 157 51.9 112.1 158 52 115 157.1 52 
116 157.1 52 117 158 51.9 116.9 158 52 
112.1 159 52 117 159 51.9 116.9 159 52 
112.1 160 52 117 160 51.9 116.9 160 52 
118 160 51.9 119 160 51.9 112 160.1 52 
111.1 161 52 117 161 51.9 116.9 161 52 
118 161 51.9 119 161 51.9 111 161.1 52 
110.1 162 52 117 161.1 52 118 161.1 52 
119 162 51.9 118.9 162 52 110 162.1 52 
109.1 163 52 119 163 51.9 118.9 163 52 
109 164 51.1 109 163.1 52 108.1 164 52 
119 164 51.9 118.9 164 52 109 165 51.1 
108.1 165 52 118.9 165 52 109 166 51.1 
108.1 166 52 118.9 166 52 109 167 51.1 
108.1 167 52 118.9 167 52 109 168 51.1 
108.1 168 52 117 168 51.1 118 168 51.1 
118.9 168 52 109 169 51.1 108.1 169 52 
117 169 51.1 118 169 51.1 118.9 169 52 
109 170 51.1 108.1 170 52 115 170 51.1 
116 170 51.1 117 170 51.1 118 170 51.1 
118.9 170 52 108 171 51.1 108 170.1 52 
107.1 171 52 115 171 51.1 116 171 51.1 
117 171 51.1 117.9 171 52 118 170.9 52 
107 172 51.1 107 171.1 52 106.1 172 52 
113 172 51.1 114 172 51.1 115 172 51.1 
116 172 51.1 116.9 172 52 117 171.9 52 
107 173 51.1 106.1 173 52 113 173 51.1 
114 173 51.1 115 173 51.1 116 173 51.1 
116.9 173 52 107 174 51.1 106.1 174 52 
111 174 51.1 112 174 51.1 113 174 51.1 
114 174 51.1 115 174 51.1 116 174 51.1 
116.9 174 52 106 175 51.1 106 174.1 52 
105.1 175 52 107 175 51.1 111 175 51.1 
112 175 51.1 113 175 51.1 114 175 51.1 
115 175 51.1 116 175 51.1 116.9 175 52 
105 176 51.1 105 175.1 52 104.1 176 52 
106 176 51.1 107 176 51.1 109 176 51.1 
110 176 51.1 111 176 51.1 112 176 51.1 
113 176 51.1 114 176 51.1 115 176 51.1 
116 176 51.1 116.9 176 52 105 177 51.1 
104.1 177 52 106 177 51.1 107 177 51.1 
109 177 51.1 110 177 51.1 111 177 51.1 
112 177 51.1 113 177 51.1 114 177 51.1 
115 177 51.1 115.9 177 52 116 176.9 52 
105 178 51.1 104.1 178 52 106 178 51.1 
107 178 51.1 109 178 51.1 110 178 51.1 
111 178 51.1 112 178 51.1 113 178 51.1 
114 178 51.1 114.9 178 52 115 177.9 52 
105 179 51.1 104.1 179 52 106 179 51.1 
107 179 51.1 109 179 51.1 110 179 51.1 
111 179 51.1 112 179 51.1 113 179 51.1 
113.9 179 52 114 178.9 52 105 180 51.1 
104.1 180 52 106 180 51.1 107 180 51.1 
109 180 51.1 110 180 51.1 111 180 51.1 
112 180 51.1 112.9 180 52 113 179.9 52 
105 181 51.1 104.1 181 52 109 181 51.1 
110 181 51.1 111 181 51.1 111.9 181 52 
112 180.9 52 105 182 51.1 104.1 182 52 
107 182 51.1 108 182 51.1 109 182 51.1 
110 182 51.1 110.9 182 52 111 181.9 52 
104.1 183 52 107 183 51.1 108 183 51.1 
109 183 51.1 109.9 183 52 110 182.9 52 
105 184 51.1 104.1 184 52 106 184 51.1 
107 184 51.1 108 184 51.1 108.9 184 52 
109 183.9 52 105 185 51.1 104.1 185 52 
106 185 51.1 107 185 51.1 107.9 185 52 
108 184.9 52 105 186 51.1 104.1 186 52 
106 186 51.1 106.9 186 52 107 185.9 52 
105 187 51.1 104.1 187 52 105.9 187 52 
106 186.9 52 105 187.9 52 113 155.1 53 
112.1 156 53 114 156 52.9 113.9 156 53 
112.1 157 53 114 156.1 53 114.9 157 53 
112.1 158 53 115 157.1 53 116 158 52.9 
115.9 158 53 112.1 159 53 116 159 52.9 
115.9 159 53 112.1 160 53 116 159.1 53 
116.9 160 53 112 160.1 53 111.1 161 53 
116.9 161 53 111 161.1 53 110.1 162 53 
117 161.1 53 118 162 52.9 117.9 162 53 
110 162.1 53 109.1 163 53 118 163 52.9 
117.9 163 53 109 163.1 53 108.1 164 53 
118 163.1 53 118.9 164 53 108.1 165 53 
118.9 165 53 108.1 166 53 118.9 166 53 
108.1 167 53 118.9 167 53 108.1 168 53 
118.9 168 53 108.1 169 53 118.9 169 53 
108.1 170 53 118.9 170 53 108 170.1 53 
107.1 171 53 118 171 52.1 118.9 171 53 
107 171.1 53 106.1 172 53 116.9 172 53 
117 171.9 53 118 171.9 53 106.1 173 53 
116.9 173 53 106.1 174 53 116.9 174 53 
106 174.1 53 105.1 175 53 116.9 175 53 
105 175.1 53 104.1 176 53 116.9 176 53 
104.1 177 53 116 177 52.1 116.9 177 53 
104.1 178 53 114.9 178 53 115 177.9 53 
116 177.9 53 104.1 179 53 114 179 52.1 
114.9 179 53 104.1 180 53 112.9 180 53 
113 179.9 53 114 179.9 53 104.1 181 53 
112 181 52.1 112.9 181 53 104.1 182 53 
110.9 182 53 111 181.9 53 112 181.9 53 
104.1 183 53 110 183 52.1 110.9 183 53 
104.1 184 53 108.9 184 53 109 183.9 53 
110 183.9 53 104.1 185 53 108 185 52.1 
108.9 185 53 104.1 186 53 106.9 186 53 
107 185.9 53 108 185.9 53 104.1 187 53 
105.9 187 53 106 186.9 53 105 187.9 53 
113 156 53.9 113 157 53.9 114 157 53.9 
113 158 53.9 114 158 53.9 115 158 53.9 
113 159 53.9 114 159 53.9 115 159 53.9 
113 160 53.9 114 160 53.9 114.1 160 54 
115 159.1 54 116 159.1 54 116.9 160 54 
112 161 53.9 113 161 53.9 113.1 161 54 
114 160.1 54 116.9 161 54 111 161.1 54 
110.1 162 54 112 161.1 54 113 161.1 54 
117 162 53.9 116.9 162 54 110 162.1 54 
109.1 163 54 117 163 53.9 116.9 163 54 
109 163.1 54 108.1 164 54 117 163.1 54 
118 163.1 54 118.9 164 54 108.1 165 54 
118.9 165 54 108.1 166 54 118.9 166 54 
108.1 167 54 118.9 167 54 108.1 168 54 
118.9 168 54 108.1 169 54 118.9 169 54 
108.1 170 54 119 169.1 54 119 170 53.1 
120 170 53.1 120 169.1 54 121 170 53.1 
121 169.1 54 122 170 53.1 122 169.1 54 
122.9 170 54 108 170.1 54 107.1 171 54 
119 171 53.1 120 171 53.1 121 171 53.1 
122 171 53.1 122.9 171 54 107 171.1 54 
106.1 172 54 117 172 53.1 118 172 53.1 
[...]
POINT_DATA 4348
SCALARS scalars float
LOOKUP_TABLE default
1 1 1 1 1 1 1 1 1 
1 1 1 1 1 1 1 1 1 
1 1 1 1 1 1 1 1 1 
1 1 1 1 1 1 1 1 1 
1 1 1 1 1 1 1 1 1 
1 1 1 1 1 1 1 1 1 
1 1 1 1 1 1 1 1 1 
1 1 1 1 1 1 1 1 1 
1 1 1 1 1 1 1 1 1 
1 1 1 1 1 1 1 1 1 
1 1 1 1 1 1 1 1 1 
1 1 1 1 1 1 1 1 1 
1 1 1 1 1 1 1 1 1 
1 1 1 1 1 1 1 1 1 
1 1 1 1 1 1 1 1 1 
1 1 1 1 1 1 1 1 1 
1 1 1 1 1 1 1 1 1 
1 1 1 1 1 1 1 1 1 
1 1 1 1 1 1 1 1 1 
1 1 1 1 1 1 1 1 1 
1 1 1 1 1 1 1 1 1 
1 1 1 1 1 1 1 1 1 
1 1 1 1 1 1 1 1 1 
1 1 1 1 1 1 1 1 1 
1 1 1 1 1 1 1 1 1 
1 1 1 1 1 1 1 1 1 
1 1 1 1 1 1 1 1 1 
1 1 1 1 1 1 1 1 1 
1 1 1 1 1 1 1 1 1 
1 1 1 1 1 1 1 1 1 
1 1 1 1 1 1 1 1 1 
1 1 1 1 1 1 1 1 1 
1 1 1 1 1 1 1 1 1 
1 1 1 1 1 1 1 1 1 
1 1 1 1 1 1 1 1 1 
1 1 1 1 1 1 1 1 1 
1 1 1 1 1 1 1 1 1 
1 1 1 1 1 1 1 1 1 
1 1 1 1 1 1 1 1 1 
1 1 1 1 1 1 1 1 1 
1 1 1 1 1 1 1 1 1 
1 1 1 1 1 1 1 1 1 
1 1 1 1 1 1 1 1 1 
1 1 1 1 1 1 1 1 1 
1 1 1 1 1 1 1 1 1 
1 1 1 1 1 1 1 1 1 
1 1 1 1 1 1 1 1 1 
1 1 1 1 1 1 1 1 1 
1 1 1 1 1 1 1 1 1 
1 1 1 1 1 1 1 1 1 
1 1 1 1 1 1 1 1 1 
1 1 1 1 1 1 1 1 1 
1 1 1 1 1 1 1 1 1 
1 1 1 1 1 1 1 1 1 
1 1 1 1 1 1 1 1 1 
1 1 1 1 1 1 1 1 1 
1 1 1 1 1 1 1 1 1 
1 1 1 1 1 1 1 1 1 
1 1 1 1 1 1 1 1 1 
1 1 1 1 1 1 1 1 1 
1 1 1 1 1 1 1 1 1 
1 1 1 1 1 1 1 1 1 
1 1 1 1 1 1 1 1 1 
1 1 1 1 1 1 1 1 1 
1 1 1 1 1 1 1 1 1 
1 1 1 1 1 1 1 1 1 
1 1 1 1 1 1 1 1 1 
1 1 1 1 1 1 1 1 1 
1 1 1 1 1 1 1 1 1 
1 1 1 1 1 1 1 1 1 
1 1 1 1 1 1 1 1 1 
1 1 1 1 1 1 1 1 1 
1 1 1 1 1 1 1 1 1 
1 1 1 1 1 1 1 1 1 
1 1 1 1 1 1 1 1 1 
1 1 1 1 1 1 1 1 1 
1 1 1 1 1 1 1 1 1 
1 1 1 1 1 1 1 1 1 
1 1 1 1 1 1 1 1 1 
1 1 1 1 1 1 1 1 1 
1 1 1 1 1 1 1 1 1 
1 1 1 1 1 1 1 1 1 
1 1 1 1 1 1 1 1 1 
1 1 1 1 1 1 1 1 1 
1 1 1 1 1 1 1 1 1 
1 1 1 1 1 1 1 1 1 
1 1 1 1 1 1 1 1 1 
1 1 1 1 1 1 1 1 1 
1 1 1 1 1 1 1 1 1 
1 1 1 1 1 1 1 1 1 
1 1 1 1 1 1 1 1 1 
1 1 1 1 1 1 1 1 1 
1 1 1 1 1 1 1 1 1 
1 1 1 1 1 1 1 1 1 
1 1 1 1 1 1 1 1 1 
1 1 1 1 1 1 1 1 1 
1 1 1 1 1 1 1 1 1 
1 1 1 1 1 1 1 1 1 
1 1 1 1 1 1 1 1 1 
1 1 1 1 1 1 1 1 1 
1 1 1 1 1 1 1 1 1 
1 1 1 1 1 1 1 1 1 
1 1 1 1 1 1 1 1 1 
1 1 1 1 1 1 1 1 1 
1 1 1 1 1 1 1 1 1 
1 1 1 1 1 1 1 1 1 
1 1 1 1 1 1 1 1 1 
1 1 1 1 1 1 1 1 1 
1 1 1 1 1 1 1 1 1 
1 1 1 1 1 1 1 1 1 
1 1 1 1 1 1 1 1 1 
1 1 1 1 1 1 1 1 1 
1 1 1 1 1 1 1 1 1 
1 1 1 1 1 1 1 1 1 
1 1 1 1 1 1 1 1 1 
1 1 1 1 1 1 1 1 1 
1 1 1 1 1 1 1 1 1 
1 1 1 1 1 1 1 1 1 
1 1 1 1 1 1 1 1 1 
1 1 1 1 1 1 1 1 1 
1 1 1 1 1 1 1 1 1 
1 1 1 1 1 1 1 1 1 
1 1 1 1 1 1 1 1 1 
1 1 1 1 1 1 1 1 1 
1 1 1 1 1 1 1 1 1 
1 1 1 1 1 1 1 1 1 
1 1 1 1 1 1 1 1 1 
1 1 1 1 1 1 1 1 1 
1 1 1 1 1 1 1 1 1 
1 1 1 1 1 1 1 1 1 
1 1 1 1 1 1 1 1 1 
1 1 1 1 1 1 1 1 1 
1 1 1 1 1 1 1 1 1 
1 1 1 1 1 1 1 1 1 
1 1 1 1 1 1 1 1 1 
1 1 1 1 1 1 1 1 1 
1 1 1 1 1 1 1 1 1 
1 1 1 1 1 1 1 1 1 
1 1 1 1 1 1 1 1 1 
1 1 1 1 1 1 1 1 1 
1 1 1 1 1 1 1 1 1 
1 1 1 1 1 1 1 1 1 
1 1 1 1 1 1 1 1 1 
1 1 1 1 1 1 1 1 1 
1 1 1 1 1 1 1 1 1 
1 1 1 1 1 1 1 1 1 
1 1 1 1 1 1 1 1 1 
1 1 1 1 1 1 1 1 1 
1 1 1 1 1 1 1 1 1 
1 1 1 1 1 1 1 1 1 
1 1 1 1 1 1 1 1 1 
1 1 1 1 1 1 1 1 1 
1 1 1 1 1 1 1 1 1 
1 1 1 1 1 1 1 1 1 
1 1 1 1 1 1 1 1 1 
1 1 1 1 1 1 1 1 1 
1 1 1 1 1 1 1 1 1 
1 1 1 1 1 1 1 1 1 
1 1 1 1 1 1 1 1 1 
1 1 1 1 1 1 1 1 1 
1 1 1 1 1 1 1 1 1 
1 1 1 1 1 1 1 1 1 
1 1 1 1 1 1 1 1 1 
1 1 1 1 1 1 1 1 1 
1 1 1 1 1 1 1 1 1 
1 1 1 1 1 1 1 1 1 
1 1 1 1 1 1 1 1 1 
1 1 1 1 1 1 1 1 1 
1 1 1 1 1 1 1 1 1 
1 1 1 1 1 1 1 1 1 
1 1 1 1 1 1 1 1 1 
1 1 1 1 1 1 1 1 1 
1 1 1 1 1 1 1 1 1 
1 1 1 1 1 1 1 1 1 
1 1 1 1 1 1 1 1 1 
1 1 1 1 1 1 1 1 1 
1 1 1 1 1 1 1 1 1 
1 1 1 1 1 1 1 1 1 
1 1 1 1 1 1 1 1 1 
1 1 1 1 1 1 1 1 1 
1 1 1 1 1 1 1 1 1 
1 1 1 1 1 1 1 1 1 
1 1 1 1 1 1 1 1 1 
1 1 1 1 1 1 1 1 1 
1 1 1 1 1 1 1 1 1 
1 1 1 1 1 1 1 1 1 
1 1 1 1 1 1 1 1 1 
1 1 1 1 1 1 1 1 1 
1 1 1 1 1 1 1 1 1 
1 1 1 1 1 1 1 1 1 
1 1 1 1 1 1 1 1 1 
1 1 1 1 1 1 1 1 1 
1 1 1 1 1 1 1 1 1 
1 1 1 1 1 1 1 1 1 
1 1 1 1 1 1 1 1 1 
1 1 1 1 1 1 1 1 1 
1 1 1 1 1 1 1 1 1 
1 1 1 1 1 1 1 1 1 
1 1 1 1 1 1 1 1 1 
1 1 1 1 1 1 1 1 1 
1 1 1 1 1 1 1 1 1 
1 1 1 1 1 1 1 1 1 
1 1 1 1 1 1 1 1 1 
1 1 1 1 1 1 1 1 1 
1 1 1 1 1 1 1 1 1 
1 1 1 1 1 1 1 1 1 
1 1 1 1 1 1 1 1 1 
1 1 1 1 1 1 1 1 1 
1 1 1 1 1 1 1 1 1 
1 1 1 1 1 1 1 1 1 
1 1 1 1 1 1 1 1 1 
1 1 1 1 1 1 1 1 1 
1 1 1 1 1 1 1 1 1 
1 1 1 1 1 1 1 1 1 
1 1 1 1 1 1 1 1 1 
1 1 1 1 1 1 1 1 1 
1 1 1 1 1 1 1 1 1 
1 1 1 1 1 1 1 1 1 
1 1 1 1 1 1 1 1 1 
1 1 1 1 1 1 1 1 1 
1 1 1 1 1 1 1 1 1 
1 1 1 1 1 1 1 1 1 
1 1 1 1 1 1 1 1 1 
1 1 1 1 1 1 1 1 1 
1 1 1 1 1 1 1 1 1 
1 1 1 1 1 1 1 1 1 
1 1 1 1 1 1 1 1 1 
1 1 1 1 1 1 1 1 1 
1 1 1 1 1 1 1 1 1 
1 1 1 1 1 1 1 1 1 
1 1 1 1 1 1 1 1 1 
1 1 1 1 1 1 1 1 1 
1 1 1 1 1 1 1 1 1 
1 1 1 1 1 1 1 1 1 
1 1 1 1 1 1 1 1 1 
1 1 1 1 1 1 1 1 1 
1 1 1 1 1 1 1 1 1 
1 1 1 1 1 1 1 1 1 
1 1 1 1 1 1 1 1 1 
1 1 1 1 1 1 1 1 1 
1 1 1 1 1 1 1 1 1 
1 1 1 1 1 1 1 1 1 
1 1 1 1 1 1 1 1 1 
1 1 1 1 1 1 1 1 1 
1 1 1 1 1 1 1 1 1 
1 1 1 1 1 1 1 1 1 
1 1 1 1 1 1 1 1 1 
1 1 1 1 1 1 1 1 1 
1 1 1 1 1 1 1 1 1 
1 1 1 1 1 1 1 1 1 
1 1 1 1 1 1 1 1 1 
1 1 1 1 1 1 1 1 1 
1 1 1 1 1 1 1 1 1 
1 1 1 1 1 1 1 1 1 
1 1 1 1 1 1 1 1 1 
1 1 1 1 1 1 1 1 1 
1 1 1 1 1 1 1 1 1 
1 1 1 1 1 1 1 1 1 
1 1 1 1 1 1 1 1 1 
1 1 1 1 1 1 1 1 1 
1 1 1 1 1 1 1 1 1 
1 1 1 1 1 1 1 1 1 
1 1 1 1 1 1 1 1 1 
1 1 1 1 1 1 1 1 1 
1 1 1 1 1 1 1 1 1 
1 1 1 1 1 1 1 1 1 
1 1 1 1 1 1 1 1 1 
1 1 1 1 1 1 1 1 1 
1 1 1 1 1 1 1 1 1 
1 1 1 1 1 1 1 1 1 
1 1 1 1 1 1 1 1 1 
1 1 1 1 1 1 1 1 1 
1 1 1 1 1 1 1 1 1 
1 1 1 1 1 1 1 1 1 
1 1 1 1 1 1 1 1 1 
1 1 1 1 1 1 1 1 1 
1 1 1 1 1 1 1 1 1 
1 1 1 1 1 1 1 1 1 
1 1 1 1 1 1 1 1 1 
1 1 1 1 1 1 1 1 1 
1 1 1 1 1 1 1 1 1 
1 1 1 1 1 1 1 1 1 
1 1 1 1 1 1 1 1 1 
1 1 1 1 1 1 1 1 1 
1 1 1 1 1 1 1 1 1 
1 1 1 1 1 1 1 1 1 
1 1 1 1 1 1 1 1 1 
1 1 1 1 1 1 1 1 1 
1 1 1 1 1 1 1 1 1 
1 1 1 1 1 1 1 1 1 
1 1 1 1 1 1 1 1 1 
1 1 1 1 1 1 1 1 1 
1 1 1 1 1 1 1 1 1 
1 1 1 1 1 1 1 1 1 
1 1 1 1 1 1 1 1 1 
1 1 1 1 1 1 1 1 1 
1 1 1 1 1 1 1 1 1 
1 1 1 1 1 1 1 1 1 
1 1 1 1 1 1 1 1 1 
1 1 1 1 1 1 1 1 1 
1 1 1 1 1 1 1 1 1 
1 1 1 1 1 1 1 1 1 
1 1 1 1 1 1 1 1 1 
1 1 1 1 1 1 1 1 1 
1 1 1 1 1 1 1 1 1 
1 1 1 1 1 1 1 1 1 
1 1 1 1 1 1 1 1 1 
1 1 1 1 1 1 1 1 1 
1 1 1 1 1 1 1 1 1 
1 1 1 1 1 1 1 1 1 
1 1 1 1 1 1 1 1 1 
1 1 1 1 1 1 1 1 1 
1 1 1 1 1 1 1 1 1 
1 1 1 1 1 1 1 1 1 
1 1 1 1 1 1 1 1 1 
1 1 1 1 1 1 1 1 1 
1 1 1 1 1 1 1 1 1 
1 1 1 1 1 1 1 1 1 
1 1 1 1 1 1 1 1 1 
1 1 1 1 1 1 1 1 1 
1 1 1 1 1 1 1 1 1 
1 1 1 1 1 1 1 1 1 
1 1 1 1 1 1 1 1 1 
1 1 1 1 1 1 1 1 1 
1 1 1 1 1 1 1 1 1 
1 1 1 1 1 1 1 1 1 
1 1 1 1 1 1 1 1 1 
1 1 1 1 1 1 1 1 1 
1 1 1 1 1 1 1 1 1 
1 1 1 1 1 1 1 1 1 
1 1 1 1 1 1 1 1 1 
1 1 1 1 1 1 1 1 1 
1 1 1 1 1 1 1 1 1 
1 1 1 1 1 1 1 1 1 
1 1 1 1 1 1 1 1 1 
1 1 1 1 1 1 1 1 1 
1 1 1 1 1 1 1 1 1 
1 1 1 1 1 1 1 1 1 
1 1 1 1 1 1 1 1 1 
1 1 1 1 1 1 1 1 1 
1 1 1 1 1 1 1 1 1 
1 1 1 1 1 1 1 1 1 
1 1 1 1 1 1 1 1 1 
1 1 1 1 1 1 1 1 1 
1 1 1 1 1 1 1 1 1 
1 1 1 1 1 1 1 1 1 
1 1 1 1 1 1 1 1 1 
1 1 1 1 1 1 1 1 1 
1 1 1 1 1 1 1 1 1 
1 1 1 1 1 1 1 1 1 
1 1 1 1 1 1 1 1 1 
1 1 1 1 1 1 1 1 1 
1 1 1 1 1 1 1 1 1 
1 1 1 1 1 1 1 1 1 
1 1 1 1 1 1 1 1 1 
1 1 1 1 1 1 1 1 1 
1 1 1 1 1 1 1 1 1 
1 1 1 1 1 1 1 1 1 
1 1 1 1 1 1 1 1 1 
1 1 1 1 1 1 1 1 1 
1 1 1 1 1 1 1 1 1 
1 1 1 1 1 1 1 1 1 
1 1 1 1 1 1 1 1 1 
1 1 1 1 1 1 1 1 1 
1 1 1 1 1 1 1 1 1 
1 1 1 1 1 1 1 1 1 
1 1 1 1 1 1 1 1 1 
1 1 1 1 1 1 1 1 1 
1 1 1 1 1 1 1 1 1 
1 1 1 1 1 1 1 1 1 
1 1 1 1 1 1 1 1 1 
1 1 1 1 1 1 1 1 1 
1 1 1 1 1 1 1 1 1 
1 1 1 1 1 1 1 1 1 
1 1 1 1 1 1 1 1 1 
1 1 1 1 1 1 1 1 1 
1 1 1 1 1 1 1 1 1 
1 1 1 1 1 1 1 1 1 
1 1 1 1 1 1 1 1 1 
1 1 1 1 1 1 1 1 1 
1 1 1 1 1 1 1 1 1 
1 1 1 1 1 1 1 1 1 
1 1 1 1 1 1 1 1 1 
1 1 1 1 1 1 1 1 1 
1 1 1 1 1 1 1 1 1 
1 1 1 1 1 1 1 1 1 
1 1 1 1 1 1 1 1 1 
1 1 1 1 1 1 1 1 1 
1 1 1 1 1 1 1 1 1 
1 1 1 1 1 1 1 1 1 
1 1 1 1 1 1 1 1 1 
1 1 1 1 1 1 1 1 1 
1 1 1 1 1 1 1 1 1 
1 1 1 1 1 1 1 1 1 
1 1 1 1 1 1 1 1 1 
1 1 1 1 1 1 1 1 1 
1 1 1 1 1 1 1 1 1 
1 1 1 1 1 1 1 1 1 
1 1 1 1 1 1 1 1 1 
1 1 1 1 1 1 1 1 1 
1 1 1 1 1 1 1 1 1 
1 1 1 1 1 1 1 1 1 
1 1 1 1 1 1 1 1 1 
1 1 1 1 1 1 1 1 1 
1 1 1 1 1 1 1 1 1 
1 1 1 1 1 1 1 1 1 
1 1 1 1 1 1 1 1 1 
1 1 1 1 1 1 1 1 1 
1 1 1 1 1 1 1 1 1 
1 1 1 1 1 1 1 1 1 
1 1 1 1 1 1 1 1 1 
1 1 1 1 1 1 1 1 1 
1 1 1 1 1 1 1 1 1 
1 1 1 1 1 1 1 1 1 
1 1 1 1 1 1 1 1 1 
1 1 1 1 1 1 1 1 1 
1 1 1 1 1 1 1 1 1 
1 1 1 1 1 1 1 1 1 
1 1 1 1 1 1 1 1 1 
1 1 1 1 1 1 1 1 1 
1 1 1 1 1 1 1 1 1 
1 1 1 1 1 1 1 1 1 
1 1 1 1 1 1 1 1 1 
1 1 1 1 1 1 1 1 1 
1 1 1 1 1 1 1 1 1 
1 1 1 1 1 1 1 1 1 
1 1 1 1 1 1 1 1 1 
1 1 1 1 1 1 1 1 1 
1 1 1 1 1 1 1 1 1 
1 1 1 1 1 1 1 1 1 
1 1 1 1 1 1 1 1 1 
1 1 1 1 1 1 1 1 1 
1 1 1 1 1 1 1 1 1 
1 1 1 1 1 1 1 1 1 
1 1 1 1 1 1 1 1 1 
1 1 1 1 1 1 1 1 1 
1 1 1 1 1 1 1 1 1 
1 1 1 1 1 1 1 1 1 
1 1 1 1 1 1 1 1 1 
1 1 1 1 1 1 1 1 1 
1 1 1 1 1 1 1 1 1 
1 1 1 1 1 1 1 1 1 
1 1 1 1 1 1 1 1 1 
1 1 1 1 1 1 1 1 1 
1 1 1 1 1 1 1 1 1 
1 1 1 1 1 1 1 1 1 
1 1 1 1 1 1 1 1 1 
1 1 1 1 1 1 1 1 1 
1 1 1 1 1 1 1 1 1 
1 1 1 1 1 1 1 1 1 
1 1 1 1 1 1 1 1 1 
1 1 1 1 1 1 1 1 1 
1 1 1 1 1 1 1 1 1 
1 1 1 1 1 1 1 1 1 
1 1 1 1 1 1 1 1 1 
1 1 1 1 1 1 1 1 1 
1 1 1 1 1 1 1 1 1 
1 1 1 1 1 1 1 1 1 
1 1 1 1 1 1 1 1 1 
1 1 1 1 1 1 1 1 1 
1 1 1 1 1 1 1 1 1 
1 1 1 1 1 1 1 1 1 
1 1 1 1 1 1 1 1 1 
1 1 1 1 1 1 1 1 1 
1 1 1 1 1 1 1 1 1 
1 1 1 1 1 1 1 1 1 
1 1 1 1 1 1 1 1 1 
1 1 1 1 1 1 1 1 1 
1 1 1 1 1 1 1 1 1 
1 1 1 1 1 1 1 1 1 
1 1 1 1 1 1 1 1 1 
1 1 1 1 1 1 1 1 1 
1 1 1 1 1 1 1 1 1 
1 1 1 1 1 1 1 1 1 
1 1 1 1 1 1 1 1 1 
1 1 1 1 1 1 1 1 1 
1 1 1 1 1 1 1 1 1 
1 1 1 1 1 1 1 1 1 
1 1 1 1 1 1 1 1 1 
1 1 1 1 1 1 1 1 1 
1 1 1 1 1 1 1 1 1 
1 1 1 1 1 1 1 1 1 
1 1 1 1 1 1 1 1 1 
1 
NORMALS normals float
0 -0.0995037 -0.995037 0 -0.707107 -0.707107 -0.667124 -0.0741249 -0.741249 
0.987878 -0.109764 -0.109764 0 0 -1 -0.668965 0 -0.743294 
0.668965 0 -0.743294 0 0 -1 -0.668965 0 -0.743294 
0.668965 0 -0.743294 0 0 -1 -0.556022 -0.556022 -0.617802 
0.668965 0 -0.743294 -0.0990148 -0.0990148 -0.990148 -0.0705346 -0.705346 -0.705346 
-0.705346 -0.0705346 -0.705346 0 0 -1 -0.556022 -0.556022 -0.617802 
0.0990148 0.0990148 -0.990148 0.705346 0.0705346 -0.705346 0 0 -1 
-0.556022 -0.556022 -0.617802 0.556022 0.556022 -0.617802 0.556022 0.556022 -0.617802 
0.0705346 0.705346 -0.705346 -0.0990148 -0.0990148 -0.990148 -0.0705346 -0.705346 -0.705346 
-0.705346 -0.0705346 -0.705346 0 0 -1 -0.556022 -0.556022 -0.617802 
0.0990148 0.0990148 -0.990148 0.705346 0.0705346 -0.705346 0 0 -1 
-0.668965 0 -0.743294 0.556022 0.556022 -0.617802 0.556022 0.556022 -0.617802 
0.0705346 0.705346 -0.705346 0 0 -1 -0.668965 0 -0.743294 
0.668965 0 -0.743294 0 0 -1 -0.556022 -0.556022 -0.617802 
0.668965 0 -0.743294 -0.0995037 0 -0.995037 -0.59655 -0.536895 -0.59655 
-0.995037 0 -0.0995037 0.0990148 0.0990148 -0.990148 0.705346 0.0705346 -0.705346 
-0.0741249 0.667124 -0.741249 0.0705346 0.705346 -0.705346 -0.0990148 -0.0990148 -0.990148 
-0.0990148 -0.990148 -0.0990148 -0.990148 -0.0990148 -0.0990148 0.109764 -0.109764 -0.987878 
0.0995037 -0.995037 0 0.995037 -0.0995037 0 -0.0995037 0 -0.995037 
-0.995037 0 -0.0995037 0.0995037 0 -0.995037 0.741249 -0.667124 -0.0741249 
-0.0995037 0 -0.995037 -0.995037 0 -0.0995037 0 0 -1 
0.667124 -0.741249 -0.0741249 0 -0.0995037 -0.995037 0.0741249 -0.741249 -0.667124 
0.0995037 -0.995037 0 0.995037 -0.0995037 0 -0.0995037 0 -0.995037 
-0.995037 0 -0.0995037 0 0 -1 -0.668965 0 -0.743294 
0.743294 -0.668965 0 -0.0995037 0 -0.995037 -0.995037 0 -0.0995037 
0 0 -1 -0.668965 0 -0.743294 0.667124 -0.741249 -0.0741249 
0.667124 -0.0741249 -0.741249 0.109764 -0.109764 -0.987878 0.0995037 -0.995037 0 
0.995037 -0.0995037 0 -0.0995037 0 -0.995037 -0.995037 0 -0.0995037 
0 0 -1 -0.668965 0 -0.743294 0.668965 0 -0.743294 
0.110432 0 -0.993884 0.743294 -0.668965 0 -0.0995037 0 -0.995037 
-0.741249 -0.667124 -0.0741249 0 -0.668965 -0.743294 -0.556022 -0.556022 -0.617802 
0.668965 0 -0.743294 0 0 -1 0.667124 -0.741249 -0.0741249 
0 -0.0995037 -0.995037 0.109764 -0.109764 -0.987878 0.0995037 -0.995037 0 
0.995037 -0.0995037 0 -0.0990148 -0.0990148 -0.990148 -0.705346 -0.705346 -0.0705346 
-0.705346 -0.705346 -0.0705346 -0.668965 0 -0.743294 0.668965 0 -0.743294 
0 0 -1 0 0 -1 0.110432 0 -0.993884 
1 0 0 -0.0990148 -0.0990148 -0.990148 -0.705346 -0.705346 -0.0705346 
-0.990148 -0.0990148 -0.0990148 0 -0.668965 -0.743294 -0.556022 -0.556022 -0.617802 
0.556022 0.556022 -0.617802 0 0.668965 -0.743294 0 0 -1 
0 0 -1 0 0 -1 0.110432 0 -0.993884 
1 0 0 -0.707107 0 -0.707107 -0.707107 0 -0.707107 
0.668965 0 -0.743294 0 0 -1 0 0 -1 
0 0 -1 0 0 -1 0.110432 0 -0.993884 
1 0 0 -0.707107 0 -0.707107 -0.707107 0 -0.707107 
0.556022 0.556022 -0.617802 0 0.668965 -0.743294 0 0 -1 
0 0 -1 0 0 -1 0 0 -1 
0 0 -1 0.109764 0.109764 -0.987878 0.995037 0.0995037 0 
-0.707107 0 -0.707107 -0.707107 0 -0.707107 0.668965 0 -0.743294 
0 0 -1 0 0 -1 0 0 -1 
0 0 -1 0 0 -1 0.109764 0.109764 -0.987878 
0.707107 0.707107 0 0.707107 0.707107 0 -0.59655 -0.536895 -0.59655 
-0.707107 0 -0.707107 0.668965 0 -0.743294 0 0 -1 
0 0 -1 0 0 -1 0 0 -1 
0.0990148 0.0990148 -0.990148 0.705346 0.705346 -0.0705346 0.707107 0.707107 0 
-0.743294 0 -0.668965 0.668965 0 -0.743294 0 0 -1 
0 0 -1 0 0 -1 0.0990148 0.0990148 -0.990148 
0.57735 0.57735 -0.57735 0.57735 0.57735 -0.57735 -0.0741249 0.667124 -0.741249 
-0.707107 0 -0.707107 0 0.668965 -0.743294 0 0 -1 
0 0 -1 0 0 -1 0.0990148 0.0990148 -0.990148 
0.705346 0.705346 -0.0705346 0.705346 0.705346 -0.0705346 -0.0995037 0 -0.995037 
-0.707107 0 -0.707107 0 0 -1 0 0 -1 
0 0 -1 0.0990148 0.0990148 -0.990148 0.57735 0.57735 -0.57735 
0.57735 0.57735 -0.57735 -0.0995037 0 -0.995037 -0.59655 -0.536895 -0.59655 
0 0 -1 0 0 -1 0.0990148 0.0990148 -0.990148 
0.705346 0.705346 -0.0705346 0.705346 0.705346 -0.0705346 -0.0990148 -0.0990148 -0.990148 
-0.57735 -0.57735 -0.57735 -0.57735 -0.57735 -0.57735 0 0 -1 
0 0 -1 0.0990148 0.0990148 -0.990148 0.57735 0.57735 -0.57735 
0.57735 0.57735 -0.57735 -0.0990148 -0.0990148 -0.990148 -0.57735 -0.57735 -0.57735 
-0.705346 -0.0705346 -0.705346 0 0 -1 0 0 -1 
0.0990148 0.0990148 -0.990148 0.705346 0.705346 -0.0705346 0.705346 0.705346 -0.0705346 
-0.0995037 0 -0.995037 -0.707107 0 -0.707107 0 0 -1 
0.0990148 0.0990148 -0.990148 0.57735 0.57735 -0.57735 0.57735 0.57735 -0.57735 
-0.0995037 0 -0.995037 -0.707107 0 -0.707107 0.0990148 0.0990148 -0.990148 
0.705346 0.705346 -0.0705346 0.705346 0.705346 -0.0705346 0 0.0995037 -0.995037 
-0.667124 0.0741249 -0.741249 0.536895 0.59655 -0.59655 0.57735 0.57735 -0.57735 
0 0.995037 -0.0995037 0 -0.995037 0.0995037 -0.987878 -0.109764 0.109764 
0.59655 -0.59655 0.536895 0.536895 -0.59655 0.59655 -0.995037 0 0.0995037 
0.57735 -0.57735 0.57735 0.705346 -0.705346 0.0705346 -1 0 0 
0.705346 -0.705346 0.0705346 0.59655 -0.59655 0.536895 0.57735 -0.57735 0.57735 
-1 0 0 0.57735 -0.57735 0.57735 0.705346 -0.705346 0.0705346 
-1 0 0 0.705346 -0.705346 0.0705346 0.741249 -0.0741249 0.667124 
0.705346 -0.0705346 0.705346 -1 0 0 0.617802 -0.556022 0.556022 
0.59655 -0.536895 0.59655 -0.743294 -0.668965 0 0.536895 -0.59655 0.59655 
0.0990148 -0.990148 0.0990148 0.741249 -0.0741249 0.667124 0.705346 -0.0705346 0.705346 
-0.707107 -0.707107 0 -0.707107 -0.707107 0 0.743294 0 0.668965 
0.707107 0 0.707107 -0.707107 -0.707107 0 -0.707107 -0.707107 0 
0.743294 0 0.668965 0.707107 0 0.707107 -0.705346 -0.0705346 -0.705346 
-0.705346 -0.705346 -0.0705346 -0.990148 -0.0990148 -0.0990148 0.743294 0 0.668965 
0.707107 0 0.707107 -0.707107 0 -0.707107 -0.707107 0 -0.707107 
0.741249 0.0741249 0.667124 0.705346 0.0705346 0.705346 -0.707107 0 -0.707107 
-0.707107 0 -0.707107 0.59655 0.59655 0.536895 0.617802 0.556022 0.556022 
0.57735 0.57735 0.57735 -0.707107 0 -0.707107 -0.707107 0 -0.707107 
1 0 0 -0.707107 0 -0.707107 -0.707107 0 -0.707107 
0.57735 0.57735 -0.57735 0.990148 0.0990148 -0.0990148 -0.707107 0 -0.707107 
-0.707107 0 -0.707107 0.617802 0.556022 -0.556022 0.556022 0.617802 -0.556022 
0.0705346 0.705346 -0.705346 -0.707107 0 -0.707107 -0.707107 0 -0.707107 
0.57735 0.57735 -0.57735 0.705346 0.0705346 -0.705346 -0.59655 -0.536895 -0.59655 
-0.59655 -0.536895 -0.59655 0.617802 0.556022 -0.556022 0.556022 0.617802 -0.556022 
0.0705346 0.705346 -0.705346 -0.57735 -0.57735 -0.57735 -0.57735 -0.57735 -0.57735 
-0.57735 -0.57735 -0.57735 0.57735 0.57735 -0.57735 0.705346 0.0705346 -0.705346 
-0.705346 -0.0705346 -0.705346 -0.57735 -0.57735 -0.57735 -0.705346 -0.0705346 -0.705346 
0.617802 0.556022 -0.556022 0.556022 0.617802 -0.556022 0.0705346 0.705346 -0.705346 
-0.707107 0 -0.707107 -0.707107 0 -0.707107 0.57735 0.57735 -0.57735 
0.705346 0.0705346 -0.705346 -0.707107 0 -0.707107 -0.707107 0 -0.707107 
0.617802 0.556022 -0.556022 0.556022 0.617802 -0.556022 0.0705346 0.705346 -0.705346 
-0.707107 0 -0.707107 -0.707107 0 -0.707107 0.57735 0.57735 -0.57735 
0.705346 0.0705346 -0.705346 0 0 -1 -0.668965 0 -0.743294 
0.556022 0.617802 -0.556022 0.556022 0.556022 -0.617802 0.0705346 0.705346 -0.705346 
0 0 -1 -0.668965 0 -0.743294 0.668965 0 -0.743294 
0 0 -1 -0.668965 0 -0.743294 0.668965 0 -0.743294 
0 0 -1 -0.668965 0 -0.743294 0.668965 0 -0.743294 
0 0 -1 -0.556022 -0.556022 -0.617802 0.668965 0 -0.743294 
-0.0990148 -0.0990148 -0.990148 -0.0705346 -0.705346 -0.705346 -0.705346 -0.0705346 -0.705346 
0 0 -1 -0.556022 -0.556022 -0.617802 0.0990148 0.0990148 -0.990148 
0.705346 0.0705346 -0.705346 0 0 -1 -0.556022 -0.556022 -0.617802 
0.556022 0.556022 -0.617802 0.556022 0.556022 -0.617802 0.0705346 0.705346 -0.705346 
-0.0995037 0 -0.995037 -0.59655 -0.536895 -0.59655 -0.995037 0 -0.0995037 
0.0990148 0.0990148 -0.990148 0.705346 0.0705346 -0.705346 -0.0741249 0.667124 -0.741249 
0.0705346 0.705346 -0.705346 0 -0.0995037 0.995037 -0.0741249 -0.667124 0.741249 
0.0705346 -0.705346 0.705346 -0.0741249 -0.741249 0.667124 -0.995037 -0.0995037 0 
0.0705346 -0.705346 0.705346 0.705346 -0.0705346 0.705346 0.705346 -0.0705346 0.705346 
-1 0 0 0.556022 -0.556022 0.617802 0.617802 -0.556022 0.556022 
0.0705346 -0.705346 0.705346 -1 0 0 0.556022 -0.617802 0.556022 
0.0705346 -0.705346 0.705346 0.705346 -0.0705346 0.705346 0.705346 -0.0705346 0.705346 
-1 0 0 0.707107 0 0.707107 0.707107 0 0.707107 
-0.743294 -0.668965 0 0.668965 0 0.743294 0.743294 0 0.668965 
0 -0.0995037 0.995037 0.0990148 -0.0990148 0.990148 -0.707107 -0.707107 0 
-0.707107 -0.707107 0 0.556022 -0.556022 0.617802 0.617802 -0.556022 0.556022 
0 -0.668965 0.743294 0.0995037 0 0.995037 -0.707107 -0.707107 0 
-0.707107 -0.707107 0 0.556022 -0.617802 0.556022 0.0705346 -0.705346 0.705346 
0.707107 0 0.707107 0.705346 -0.0705346 0.705346 -0.707107 -0.707107 0 
-0.707107 -0.707107 0 0.707107 0 0.707107 0.707107 0 0.707107 
-0.705346 -0.0705346 -0.705346 -0.705346 -0.705346 -0.0705346 -0.990148 -0.0990148 -0.0990148 
0.705346 0.0705346 0.705346 0.743294 0 0.668965 -0.707107 0 -0.707107 
-0.995037 0 -0.0995037 1 0 0 -0.707107 0 -0.707107 
-0.995037 0 -0.0995037 1 0 0 -0.707107 0 -0.707107 
-0.995037 0 -0.0995037 1 0 0 -0.707107 0 -0.707107 
-0.995037 0 -0.0995037 0.556022 0.556022 -0.617802 0.0741249 0.667124 -0.741249 
0.995037 0 -0.0995037 -0.707107 0 -0.707107 -0.995037 0 -0.0995037 
0.668965 0 -0.743294 0.0995037 0 -0.995037 0.995037 0 -0.0995037 
-0.59655 -0.536895 -0.59655 -0.741249 -0.667124 -0.0741249 0.556022 0.556022 -0.617802 
0 0.668965 -0.743294 0 0 -1 0.0990148 0.0990148 -0.990148 
0.990148 0.0990148 -0.0990148 -0.57735 -0.57735 -0.57735 -0.705346 -0.705346 -0.0705346 
-0.705346 -0.705346 -0.0705346 0.668965 0 -0.743294 0 0 -1 
0.0990148 0.0990148 -0.990148 0.57735 0.57735 -0.57735 0.57735 0.57735 -0.57735 
-0.705346 -0.0705346 -0.705346 -0.705346 -0.705346 -0.0705346 -0.990148 -0.0990148 -0.0990148 
0.556022 0.556022 -0.617802 0 0.668965 -0.743294 0 0 -1 
0.0995037 0 -0.995037 0.741249 0.667124 -0.0741249 0.705346 0.705346 -0.0705346 
-0.707107 0 -0.707107 -0.995037 0 -0.0995037 0.668965 0 -0.743294 
0 0 -1 0 0 -1 0.0995037 0 -0.995037 
0.995037 0 -0.0995037 -0.707107 0 -0.707107 -0.741249 -0.667124 -0.0741249 
0.556022 0.556022 -0.617802 0 0.668965 -0.743294 0 0 -1 
0 0 -1 0 0 -1 0.0995037 0 -0.995037 
0.995037 0 -0.0995037 -0.0990148 -0.0990148 -0.990148 -0.705346 -0.705346 -0.0705346 
-0.705346 -0.705346 -0.0705346 -0.668965 0 -0.743294 0.668965 0 -0.743294 
0 0 -1 0 0 -1 0 0 -1 
0 0 -1 0.0995037 0 -0.995037 0.995037 0 -0.0995037 