# vtk DataFile Version 3.0
vtk output
ASCII
DATASET POLYDATA
POINTS 3322 float
103 87 118.014 103 86.0143 119 102.014 87 119 
104 87 118.014 104 86.0143 119 105 87 118.014 
105 86.0143 119 105.986 87 119 103 87.9857 119 
104 87.9857 119 105 87.9857 119 103 86 119.014 
103 85.0143 120 102.014 86 120 104 86 119.014 
104 85.0143 120 105 86 119.014 105 85.0143 120 
106 86 119.014 106 85.0143 120 106.986 86 120 
102.014 87 120 106 87 119.014 106.986 87 120 
103 88 119.014 102.014 88 120 104 88 119.014 
105 88 119.014 106 88 119.014 106.986 88 120 
102 89 119.014 102 88.0143 120 101.014 89 120 
103 89 119.014 104 89 119.014 105 89 119.014 
106 89 119.014 106.986 89 120 99 90 119.014 
99 89.0143 120 98.0143 90 120 100 90 119.014 
100 89.0143 120 101 90 119.014 101 89.0143 120 
102 90 119.014 103 90 119.014 104 90 119.014 
105 90 119.014 106 90 119.014 106.986 90 120 
98 91 119.014 98 90.0143 120 97.0143 91 120 
99 91 119.014 100 91 119.014 101 91 119.014 
102 91 119.014 103 91 119.014 104 91 119.014 
105 91 119.014 105.986 91 120 106 90.9857 120 
97 92 119.014 97 91.0143 120 96.0143 92 120 
98 92 119.014 99 92 119.014 100 92 119.014 
101 92 119.014 102 92 119.014 103 92 119.014 
104 92 119.014 104.986 92 120 105 91.9857 120 
97 93 119.014 96.0143 93 120 98 93 119.014 
99 93 119.014 100 93 119.014 101 93 119.014 
102 93 119.014 103 93 119.014 104 93 119.014 
104.986 93 120 97 93.9857 120 98 93.9857 120 
98.0143 94 120 99 94 119.014 100 94 119.014 
101 94 119.014 102 94 119.014 103 94 119.014 
104 94 119.014 105 93.0143 120 105 94 119.014 
106 94 119.014 106 93.0143 120 106.986 94 120 
99 95 119.014 98.0143 95 120 100 95 119.014 
101 95 119.014 102 95 119.014 103 95 119.014 
104 95 119.014 105 95 119.014 106 95 119.014 
106.986 95 120 99 95.9857 120 100 95.9857 120 
100.014 96 120 101 96 119.014 102 96 119.014 
103 96 119.014 104 96 119.014 105 96 119.014 
106 96 119.014 106.986 96 120 101 97 119.014 
100.014 97 120 102 97 119.014 103 97 119.014 
104 97 119.014 105 97 119.014 106 97 119.014 
106.986 97 120 101 97.9857 120 102 97.9857 120 
103 97.9857 120 104 97.9857 120 104.014 98 120 
105 98 119.014 106 98 119.014 106.986 98 120 
105 99 119.014 104.014 99 120 105.986 99 120 
106 98.9857 120 105 99.9857 120 103 85 120.014 
103 84.0143 121 102.014 85 121 104 85 120.014 
104 84.0143 121 105 85 120.014 105 84.0143 121 
105.986 85 121 102.014 86 121 106 85.0143 121 
106.986 86 121 102.014 87 121 106.986 87 121 
102.014 88 121 106.986 88 121 102 88.0143 121 
101.014 89 121 106.986 89 121 98 90 120.014 
98 89.0143 121 97.0143 90 121 99 89.0143 121 
100 89.0143 121 101 89.0143 121 106.986 90 121 
97 91 120.014 97 90.0143 121 96.0143 91 121 
105.986 91 121 106 90.9857 121 96.0143 92 121 
104.986 92 121 105 91.9857 121 96.0143 93 121 
105 92.0143 121 105 93 120.014 105.986 93 121 
97 93.9857 121 98 94 120.014 97.0143 94 121 
106 93.0143 121 106.986 94 121 98 94.9857 121 
98.0143 95 121 106.986 95 121 99 95.9857 121 
100 96 120.014 99.0143 96 121 106.986 96 121 
100 96.9857 121 100.014 97 121 106.986 97 121 
101 97.9857 121 102 97.9857 121 103 97.9857 121 
104 97.9857 121 104.014 98 121 106.986 98 121 
105 98.9857 121 105 99 120.986 106 98.9857 121 
104 83 121.014 104 82.0143 122 103.014 83 122 
104.986 83 122 103 84 121.014 103 83.0143 122 
102.014 84 122 104 84 121.014 105 83.0143 122 
105 84 121.014 106 84 121.014 106 83.0143 122 
106.986 84 122 102.014 85 122 106 85 121.014 
106.986 85 122 102.014 86 122 106.986 86 122 
102.014 87 122 106.986 87 122 102.014 88 122 
106.986 88 122 102 88.0143 122 101.014 89 122 
106.986 89 122 97 90 121.014 97 89.0143 122 
96.0143 90 122 98 89.0143 122 99 89.0143 122 
100 89.0143 122 101 89.0143 122 106.986 90 122 
96.0143 91 122 105.986 91 122 106 90.9857 122 
96.0143 92 122 104.986 92 122 105 91.9857 122 
96.0143 93 122 105 93 121.986 104.986 93 122 
97 94 121.014 96.0143 94 122 105 93.0143 122 
106 93.0143 122 106.986 94 122 97 95 121.014 
96.0143 95 122 98 95 121.014 106.986 95 122 
97 95.9857 122 98 95.9857 122 99 96 121.014 
98.0143 96 122 106.986 96 122 99 97 121.014 
98.0143 97 122 100 97 121.014 106 97 121.986 
105.986 97 122 106 96.9857 122 99 97.9857 122 
100 97.9857 122 101 97.9857 122 102 97.9857 122 
103 97.9857 122 104 97.9857 122 105 97.9857 122 
105 98 121.986 106 98 121.986 103 83 122.014 
103 82.0143 123 102.014 83 123 104 82.0143 123 
104.986 83 123 102 84 122.014 102 83.0143 123 
101.014 84 123 105 83.0143 123 106 83.0143 123 
106.986 84 123 102 85 122.014 101.014 85 123 
106.986 85 123 102 86 122.014 101.014 86 123 
106.986 86 123 102 87 122.014 101.014 87 123 
106.986 87 123 102 88 122.014 101.014 88 123 
106.986 88 123 97 89 122.014 97 88.0143 123 
96.0143 89 123 98 89 122.014 98 88.0143 123 
99 89 122.014 99 88.0143 123 100 89 122.014 
100 88.0143 123 101 89 122.014 101 88.0143 123 
106 89 122.986 105.986 89 123 106 88.9857 123 
96 90 122.014 96 89.0143 123 95.0143 90 123 
106 90 122.986 105.986 90 123 96 91 122.014 
95.0143 91 123 105 91 122.986 104.986 91 123 
105 90.9857 123 96 92 122.014 95.0143 92 123 
104.986 92 123 96 93 122.014 95.0143 93 123 
104.986 93 123 96 94 122.014 95.0143 94 123 
105 93.0143 123 106 94 122.986 105.986 94 123 
96 94.9857 123 96.0143 95 123 106 95 122.986 
105.986 95 123 97 95.9857 123 98 95.9857 123 
98.0143 96 123 106 96 122.986 105.986 96 123 
98.0143 97 123 104 97 122.986 103.986 97 123 
104 96.9857 123 105 96.9857 123 105 97 122.986 
99 97.9857 123 100 97.9857 123 101 97.9857 123 
102 97.9857 123 103 97.9857 123 103 82 123.014 
103 81.0143 124 102.014 82 124 104 82 123.014 
104 81.0143 124 104.986 82 124 102.014 83 124 
104.986 83 124 102 84 123.986 102.014 84 124 
105 83.0143 124 106 83.0143 124 106.986 84 124 
102 84.0143 124 101.014 85 124 106.986 85 124 
101 86 123.014 101 85.0143 124 100.014 86 124 
106.986 86 124 101 87 123.014 100.014 87 124 
106.986 87 124 101 88 123.014 100.014 88 124 
106.986 88 124 97 89 123.986 98 89 123.986 
99 89 123.986 99.0143 89 124 100 88.0143 124 
105.986 89 124 106 88.9857 124 93 90 123.014 
93 89.0143 124 92.0143 90 124 94 90 123.014 
94 89.0143 124 95 90 123.014 95 89.0143 124 
96 89.0143 124 97 89.0143 124 98 89.0143 124 
99 89.0143 124 105 90 123.986 104.986 90 124 
105 89.9857 124 93 91 123.014 92.0143 91 124 
94 91 123.014 95 91 123.014 104.986 91 124 
93 92 123.014 92.0143 92 124 94 92 123.014 
95 92 123.014 104.986 92 124 93 93 123.014 
92.0143 93 124 94 93 123.014 95 93 123.014 
104.986 93 124 93 93.9857 124 94 93.9857 124 
94.0143 94 124 95 94 123.014 105 94 123.986 
104.986 94 124 95 95 123.014 94.0143 95 124 
96 95 123.014 105 95 123.986 104.986 95 124 
95 95.9857 124 96 95.9857 124 97 95.9857 124 
98 95.9857 124 98.0143 96 124 105 96 123.986 
104.986 96 124 98.0143 97 124 103.986 97 124 
104 96.9857 124 99 97.9857 124 100 97.9857 124 
101 97.9857 124 102 97.9857 124 103 97.9857 124 
103 81.0143 125 102.014 82 125 104 81.0143 125 
104.986 82 125 102.014 83 125 104.986 83 125 
102.014 84 125 105 83.0143 125 106 84 124.986 
105.986 84 125 102 84.0143 125 101.014 85 125 
106 85 124.986 105.986 85 125 101 85.0143 125 
100.014 86 125 106 86 124.986 105.986 86 125 
100.014 87 125 106 87 124.986 105.986 87 125 
100.014 88 125 106 88 124.986 105.986 88 125 
100 88.0143 125 99.0143 89 125 105 89 124.986 
104.986 89 125 105 88.9857 125 92 90 124.014 
92 89.0143 125 91.0143 90 125 93 89.0143 125 
94 89.0143 125 95 89.0143 125 96 89.0143 125 
97 89.0143 125 98 89.0143 125 99 89.0143 125 
104.986 90 125 92 91 124.014 91.0143 91 125 
104.986 91 125 92 92 124.014 91.0143 92 125 
104.986 92 125 92 93 124.014 91.0143 93 125 
104.986 93 125 92 93.9857 125 93 93.9857 125 
94 94 124.014 93.0143 94 125 104.986 94 125 
94 95 124.014 93.0143 95 125 104.986 95 125 
94 95.9857 125 95 95.9857 125 96 95.9857 125 
97 95.9857 125 98 96 124.014 97.0143 96 125 
104.986 96 125 98 97 124.014 97.0143 97 125 
103.986 97 125 104 96.9857 125 98 97.9857 125 
99 97.9857 125 100 97.9857 125 101 97.9857 125 
102 97.9857 125 103 97.9857 125 103 81.0143 126 
102.014 82 126 104 81.0143 126 104.986 82 126 
102.014 83 126 104.986 83 126 102.014 84 126 
105 84 125.986 104.986 84 126 102 84.0143 126 
101.014 85 126 105 85 125.986 104.986 85 126 
101 85.0143 126 100.014 86 126 105 86 125.986 
104.986 86 126 100.014 87 126 105 87 125.986 
104.986 87 126 100.014 88 126 105 88 125.986 
104.986 88 126 100 88.0143 126 99.0143 89 126 
104.986 89 126 91 90 125.014 91 89.0143 126 
90.0143 90 126 92 89.0143 126 93 89.0143 126 
94 89.0143 126 95 89.0143 126 96 89.0143 126 
97 89.0143 126 98 89.0143 126 99 89.0143 126 
104.986 90 126 91 91 125.014 90.0143 91 126 
104.986 91 126 91 92 125.014 90.0143 92 126 
104.986 92 126 91 93 125.014 90.0143 93 126 
104.986 93 126 91 94 125.014 90.0143 94 126 
92 94 125.014 93 94 125.014 104.986 94 126 
91 95 125.014 90.0143 95 126 92 95 125.014 
93 95 125.014 104.986 95 126 91 95.9857 126 
92 95.9857 126 93 95.9857 126 94 95.9857 126 
95 96 125.014 94.0143 96 126 96 96 125.014 
97 96 125.014 104.986 96 126 95 97 125.014 
94.0143 97 126 96 97 125.014 97 97 125.014 
103.986 97 126 104 96.9857 126 95 97.9857 126 
96 97.9857 126 97 97.9857 126 98 97.9857 126 
99 97.9857 126 100 97.9857 126 101 97.9857 126 
102 97.9857 126 103 97.9857 126 103 81.0143 127 
102.014 82 127 104 82 126.986 103.986 82 127 
102.014 83 127 104 83 126.986 103.986 83 127 
102.014 84 127 104 84 126.986 103.986 84 127 
102 84.0143 127 101.014 85 127 104 85 126.986 
103.986 85 127 101 85.0143 127 100.014 86 127 
104 85.0143 127 104.986 86 127 100 87 126.014 
100 86.0143 127 99.0143 87 127 104.986 87 127 
100 88 126.014 99.0143 88 127 104.986 88 127 
98 89 126.014 98 88.0143 127 97.0143 89 127 
99 89 126.014 99 88.0143 127 104.986 89 127 
90 90 126.014 90 89.0143 127 89.0143 90 127 
91 89.0143 127 92 89.0143 127 93 89.0143 127 
94 89.0143 127 95 89.0143 127 96 89.0143 127 
97 89.0143 127 104.986 90 127 90 91 126.014 
89.0143 91 127 104.986 91 127 90 91.9857 127 
90.0143 92 127 104.986 92 127 90.0143 93 127 
[...]
POINT_DATA 3322
SCALARS scalars float
LOOKUP_TABLE default
1 1 1 1 1 1 1 1 1 
1 1 1 1 1 1 1 1 1 
1 1 1 1 1 1 1 1 1 
1 1 1 1 1 1 1 1 1 
1 1 1 1 1 1 1 1 1 
1 1 1 1 1 1 1 1 1 
1 1 1 1 1 1 1 1 1 
1 1 1 1 1 1 1 1 1 
1 1 1 1 1 1 1 1 1 
1 1 1 1 1 1 1 1 1 
1 1 1 1 1 1 1 1 1 
1 1 1 1 1 1 1 1 1 
1 1 1 1 1 1 1 1 1 
1 1 1 1 1 1 1 1 1 
1 1 1 1 1 1 1 1 1 
1 1 1 1 1 1 1 1 1 
1 1 1 1 1 1 1 1 1 
1 1 1 1 1 1 1 1 1 
1 1 1 1 1 1 1 1 1 
1 1 1 1 1 1 1 1 1 
1 1 1 1 1 1 1 1 1 
1 1 1 1 1 1 1 1 1 
1 1 1 1 1 1 1 1 1 
1 1 1 1 1 1 1 1 1 
1 1 1 1 1 1 1 1 1 
1 1 1 1 1 1 1 1 1 
1 1 1 1 1 1 1 1 1 
1 1 1 1 1 1 1 1 1 
1 1 1 1 1 1 1 1 1 
1 1 1 1 1 1 1 1 1 
1 1 1 1 1 1 1 1 1 
1 1 1 1 1 1 1 1 1 
1 1 1 1 1 1 1 1 1 
1 1 1 1 1 1 1 1 1 
1 1 1 1 1 1 1 1 1 
1 1 1 1 1 1 1 1 1 
1 1 1 1 1 1 1 1 1 
1 1 1 1 1 1 1 1 1 
1 1 1 1 1 1 1 1 1 
1 1 1 1 1 1 1 1 1 
1 1 1 1 1 1 1 1 1 
1 1 1 1 1 1 1 1 1 
1 1 1 1 1 1 1 1 1 
1 1 1 1 1 1 1 1 1 
1 1 1 1 1 1 1 1 1 
1 1 1 1 1 1 1 1 1 
1 1 1 1 1 1 1 1 1 
1 1 1 1 1 1 1 1 1 
1 1 1 1 1 1 1 1 1 
1 1 1 1 1 1 1 1 1 
1 1 1 1 1 1 1 1 1 
1 1 1 1 1 1 1 1 1 
1 1 1 1 1 1 1 1 1 
1 1 1 1 1 1 1 1 1 
1 1 1 1 1 1 1 1 1 
1 1 1 1 1 1 1 1 1 
1 1 1 1 1 1 1 1 1 
1 1 1 1 1 1 1 1 1 
1 1 1 1 1 1 1 1 1 
1 1 1 1 1 1 1 1 1 
1 1 1 1 1 1 1 1 1 
1 1 1 1 1 1 1 1 1 
1 1 1 1 1 1 1 1 1 
1 1 1 1 1 1 1 1 1 
1 1 1 1 1 1 1 1 1 
1 1 1 1 1 1 1 1 1 
1 1 1 1 1 1 1 1 1 
1 1 1 1 1 1 1 1 1 
1 1 1 1 1 1 1 1 1 
1 1 1 1 1 1 1 1 1 
1 1 1 1 1 1 1 1 1 
1 1 1 1 1 1 1 1 1 
1 1 1 1 1 1 1 1 1 
1 1 1 1 1 1 1 1 1 
1 1 1 1 1 1 1 1 1 
1 1 1 1 1 1 1 1 1 
1 1 1 1 1 1 1 1 1 
1 1 1 1 1 1 1 1 1 
1 1 1 1 1 1 1 1 1 
1 1 1 1 1 1 1 1 1 
1 1 1 1 1 1 1 1 1 
1 1 1 1 1 1 1 1 1 
1 1 1 1 1 1 1 1 1 
1 1 1 1 1 1 1 1 1 
1 1 1 1 1 1 1 1 1 
1 1 1 1 1 1 1 1 1 
1 1 1 1 1 1 1 1 1 
1 1 1 1 1 1 1 1 1 
1 1 1 1 1 1 1 1 1 
1 1 1 1 1 1 1 1 1 
1 1 1 1 1 1 1 1 1 
1 1 1 1 1 1 1 1 1 
1 1 1 1 1 1 1 1 1 
1 1 1 1 1 1 1 1 1 
1 1 1 1 1 1 1 1 1 
1 1 1 1 1 1 1 1 1 
1 1 1 1 1 1 1 1 1 
1 1 1 1 1 1 1 1 1 
1 1 1 1 1 1 1 1 1 
1 1 1 1 1 1 1 1 1 
1 1 1 1 1 1 1 1 1 
1 1 1 1 1 1 1 1 1 
1 1 1 1 1 1 1 1 1 
1 1 1 1 1 1 1 1 1 
1 1 1 1 1 1 1 1 1 
1 1 1 1 1 1 1 1 1 
1 1 1 1 1 1 1 1 1 
1 1 1 1 1 1 1 1 1 
1 1 1 1 1 1 1 1 1 
1 1 1 1 1 1 1 1 1 
1 1 1 1 1 1 1 1 1 
1 1 1 1 1 1 1 1 1 
1 1 1 1 1 1 1 1 1 
1 1 1 1 1 1 1 1 1 
1 1 1 1 1 1 1 1 1 
1 1 1 1 1 1 1 1 1 
1 1 1 1 1 1 1 1 1 
1 1 1 1 1 1 1 1 1 
1 1 1 1 1 1 1 1 1 
1 1 1 1 1 1 1 1 1 
1 1 1 1 1 1 1 1 1 
1 1 1 1 1 1 1 1 1 
1 1 1 1 1 1 1 1 1 
1 1 1 1 1 1 1 1 1 
1 1 1 1 1 1 1 1 1 
1 1 1 1 1 1 1 1 1 
1 1 1 1 1 1 1 1 1 
1 1 1 1 1 1 1 1 1 
1 1 1 1 1 1 1 1 1 
1 1 1 1 1 1 1 1 1 
1 1 1 1 1 1 1 1 1 
1 1 1 1 1 1 1 1 1 
1 1 1 1 1 1 1 1 1 
1 1 1 1 1 1 1 1 1 
1 1 1 1 1 1 1 1 1 
1 1 1 1 1 1 1 1 1 
1 1 1 1 1 1 1 1 1 
1 1 1 1 1 1 1 1 1 
1 1 1 1 1 1 1 1 1 
1 1 1 1 1 1 1 1 1 
1 1 1 1 1 1 1 1 1 
1 1 1 1 1 1 1 1 1 
1 1 1 1 1 1 1 1 1 
1 1 1 1 1 1 1 1 1 
1 1 1 1 1 1 1 1 1 
1 1 1 1 1 1 1 1 1 
1 1 1 1 1 1 1 1 1 
1 1 1 1 1 1 1 1 1 
1 1 1 1 1 1 1 1 1 
1 1 1 1 1 1 1 1 1 
1 1 1 1 1 1 1 1 1 
1 1 1 1 1 1 1 1 1 
1 1 1 1 1 1 1 1 1 
1 1 1 1 1 1 1 1 1 
1 1 1 1 1 1 1 1 1 
1 1 1 1 1 1 1 1 1 
1 1 1 1 1 1 1 1 1 
1 1 1 1 1 1 1 1 1 
1 1 1 1 1 1 1 1 1 
1 1 1 1 1 1 1 1 1 
1 1 1 1 1 1 1 1 1 
1 1 1 1 1 1 1 1 1 
1 1 1 1 1 1 1 1 1 
1 1 1 1 1 1 1 1 1 
1 1 1 1 1 1 1 1 1 
1 1 1 1 1 1 1 1 1 
1 1 1 1 1 1 1 1 1 
1 1 1 1 1 1 1 1 1 
1 1 1 1 1 1 1 1 1 
1 1 1 1 1 1 1 1 1 
1 1 1 1 1 1 1 1 1 
1 1 1 1 1 1 1 1 1 
1 1 1 1 1 1 1 1 1 
1 1 1 1 1 1 1 1 1 
1 1 1 1 1 1 1 1 1 
1 1 1 1 1 1 1 1 1 
1 1 1 1 1 1 1 1 1 
1 1 1 1 1 1 1 1 1 
1 1 1 1 1 1 1 1 1 
1 1 1 1 1 1 1 1 1 
1 1 1 1 1 1 1 1 1 
1 1 1 1 1 1 1 1 1 
1 1 1 1 1 1 1 1 1 
1 1 1 1 1 1 1 1 1 
1 1 1 1 1 1 1 1 1 
1 1 1 1 1 1 1 1 1 
1 1 1 1 1 1 1 1 1 
1 1 1 1 1 1 1 1 1 
1 1 1 1 1 1 1 1 1 
1 1 1 1 1 1 1 1 1 
1 1 1 1 1 1 1 1 1 
1 1 1 1 1 1 1 1 1 
1 1 1 1 1 1 1 1 1 
1 1 1 1 1 1 1 1 1 
1 1 1 1 1 1 1 1 1 
1 1 1 1 1 1 1 1 1 
1 1 1 1 1 1 1 1 1 
1 1 1 1 1 1 1 1 1 
1 1 1 1 1 1 1 1 1 
1 1 1 1 1 1 1 1 1 
1 1 1 1 1 1 1 1 1 
1 1 1 1 1 1 1 1 1 
1 1 1 1 1 1 1 1 1 
1 1 1 1 1 1 1 1 1 
1 1 1 1 1 1 1 1 1 
1 1 1 1 1 1 1 1 1 
1 1 1 1 1 1 1 1 1 
1 1 1 1 1 1 1 1 1 
1 1 1 1 1 1 1 1 1 
1 1 1 1 1 1 1 1 1 
1 1 1 1 1 1 1 1 1 
1 1 1 1 1 1 1 1 1 
1 1 1 1 1 1 1 1 1 
1 1 1 1 1 1 1 1 1 
1 1 1 1 1 1 1 1 1 
1 1 1 1 1 1 1 1 1 
1 1 1 1 1 1 1 1 1 
1 1 1 1 1 1 1 1 1 
1 1 1 1 1 1 1 1 1 
1 1 1 1 1 1 1 1 1 
1 1 1 1 1 1 1 1 1 
1 1 1 1 1 1 1 1 1 
1 1 1 1 1 1 1 1 1 
1 1 1 1 1 1 1 1 1 
1 1 1 1 1 1 1 1 1 
1 1 1 1 1 1 1 1 1 
1 1 1 1 1 1 1 1 1 
1 1 1 1 1 1 1 1 1 
1 1 1 1 1 1 1 1 1 
1 1 1 1 1 1 1 1 1 
1 1 1 1 1 1 1 1 1 
1 1 1 1 1 1 1 1 1 
1 1 1 1 1 1 1 1 1 
1 1 1 1 1 1 1 1 1 
1 1 1 1 1 1 1 1 1 
1 1 1 1 1 1 1 1 1 
1 1 1 1 1 1 1 1 1 
1 1 1 1 1 1 1 1 1 
1 1 1 1 1 1 1 1 1 
1 1 1 1 1 1 1 1 1 
1 1 1 1 1 1 1 1 1 
1 1 1 1 1 1 1 1 1 
1 1 1 1 1 1 1 1 1 
1 1 1 1 1 1 1 1 1 
1 1 1 1 1 1 1 1 1 
1 1 1 1 1 1 1 1 1 
1 1 1 1 1 1 1 1 1 
1 1 1 1 1 1 1 1 1 
1 1 1 1 1 1 1 1 1 
1 1 1 1 1 1 1 1 1 
1 1 1 1 1 1 1 1 1 
1 1 1 1 1 1 1 1 1 
1 1 1 1 1 1 1 1 1 
1 1 1 1 1 1 1 1 1 
1 1 1 1 1 1 1 1 1 
1 1 1 1 1 1 1 1 1 
1 1 1 1 1 1 1 1 1 
1 1 1 1 1 1 1 1 1 
1 1 1 1 1 1 1 1 1 
1 1 1 1 1 1 1 1 1 
1 1 1 1 1 1 1 1 1 
1 1 1 1 1 1 1 1 1 
1 1 1 1 1 1 1 1 1 
1 1 1 1 1 1 1 1 1 
1 1 1 1 1 1 1 1 1 
1 1 1 1 1 1 1 1 1 
1 1 1 1 1 1 1 1 1 
1 1 1 1 1 1 1 1 1 
1 1 1 1 1 1 1 1 1 
1 1 1 1 1 1 1 1 1 
1 1 1 1 1 1 1 1 1 
1 1 1 1 1 1 1 1 1 
1 1 1 1 1 1 1 1 1 
1 1 1 1 1 1 1 1 1 
1 1 1 1 1 1 1 1 1 
1 1 1 1 1 1 1 1 1 
1 1 1 1 1 1 1 1 1 
1 1 1 1 1 1 1 1 1 
1 1 1 1 1 1 1 1 1 
1 1 1 1 1 1 1 1 1 
1 1 1 1 1 1 1 1 1 
1 1 1 1 1 1 1 1 1 
1 1 1 1 1 1 1 1 1 
1 1 1 1 1 1 1 1 1 
1 1 1 1 1 1 1 1 1 
1 1 1 1 1 1 1 1 1 
1 1 1 1 1 1 1 1 1 
1 1 1 1 1 1 1 1 1 
1 1 1 1 1 1 1 1 1 
1 1 1 1 1 1 1 1 1 
1 1 1 1 1 1 1 1 1 
1 1 1 1 1 1 1 1 1 
1 1 1 1 1 1 1 1 1 
1 1 1 1 1 1 1 1 1 
1 1 1 1 1 1 1 1 1 
1 1 1 1 1 1 1 1 1 
1 1 1 1 1 1 1 1 1 
1 1 1 1 1 1 1 1 1 
1 1 1 1 1 1 1 1 1 
1 1 1 1 1 1 1 1 1 
1 1 1 1 1 1 1 1 1 
1 1 1 1 1 1 1 1 1 
1 1 1 1 1 1 1 1 1 
1 1 1 1 1 1 1 1 1 
1 1 1 1 1 1 1 1 1 
1 1 1 1 1 1 1 1 1 
1 1 1 1 1 1 1 1 1 
1 1 1 1 1 1 1 1 1 
1 1 1 1 1 1 1 1 1 
1 1 1 1 1 1 1 1 1 
1 1 1 1 1 1 1 1 1 
1 1 1 1 1 1 1 1 1 
1 1 1 1 1 1 1 1 1 
1 1 1 1 1 1 1 1 1 
1 1 1 1 1 1 1 1 1 
1 1 1 1 1 1 1 1 1 
1 1 1 1 1 1 1 1 1 
1 1 1 1 1 1 1 1 1 
1 1 1 1 1 1 1 1 1 
1 1 1 1 1 1 1 1 1 
1 1 1 1 1 1 1 1 1 
1 1 1 1 1 1 1 1 1 
1 1 1 1 1 1 1 1 1 
1 1 1 1 1 1 1 1 1 
1 1 1 1 1 1 1 1 1 
1 1 1 1 1 1 1 1 1 
1 1 1 1 1 1 1 1 1 
1 1 1 1 1 1 1 1 1 
1 1 1 1 1 1 1 1 1 
1 1 1 1 1 1 1 1 1 
1 1 1 1 1 1 1 1 1 
1 1 1 1 1 1 1 1 1 
1 1 1 1 1 1 1 1 1 
1 1 1 1 1 1 1 1 1 
1 1 1 1 1 1 1 1 1 
1 1 1 1 1 1 1 1 1 
1 1 1 1 1 1 1 1 1 
1 1 1 1 1 1 1 1 1 
1 1 1 1 1 1 1 1 1 
1 1 1 1 1 1 1 1 1 
1 1 1 1 1 1 1 1 1 
1 1 1 1 1 1 1 1 1 
1 1 1 1 1 1 1 1 1 
1 1 1 1 1 1 1 1 1 
1 1 1 1 1 1 1 1 1 
1 1 1 1 1 1 1 1 1 
1 1 1 1 1 1 1 1 1 
1 1 1 1 1 1 1 1 1 
1 1 1 1 1 1 1 1 1 
1 1 1 1 1 1 1 1 1 
1 1 1 1 1 1 1 1 1 
1 1 1 1 1 1 1 1 1 
1 1 1 1 1 1 1 1 1 
1 1 1 1 1 1 1 1 1 
1 1 1 1 1 1 1 1 1 
1 1 1 1 1 1 1 1 1 
1 1 1 1 1 1 1 1 1 
1 1 1 1 1 1 1 1 1 
1 1 1 1 1 1 1 1 1 
1 1 1 1 1 1 1 1 1 
1 1 1 1 1 1 1 1 1 
1 1 1 1 1 1 1 1 1 
1 1 1 1 1 1 1 1 1 
1 1 1 1 1 1 1 1 1 
1 1 1 1 1 1 1 1 1 
1 1 1 1 1 1 1 1 1 
1 1 1 1 1 1 1 1 1 
1 1 1 1 1 1 1 1 1 
1 1 1 1 1 1 1 1 1 
1 
NORMALS normals float
-0.0142843 0 -0.999898 -0.0101734 -0.701965 -0.712139 -0.999898 0 -0.0142843 
0 0 -1 0 -0.702002 -0.712175 0.0142843 0 -0.999898 
0.0101734 -0.701965 -0.712139 0.707107 0 -0.707107 -0.0101734 0.701965 -0.712139 
0 0.702002 -0.712175 0.0101734 0.701965 -0.712139 -0.010101 -0.707071 -0.707071 
-0.010101 -0.707071 -0.707071 -0.999796 -0.0142828 -0.0142828 0 -0.707107 -0.707107 
0 -0.707107 -0.707107 0 -0.707107 -0.707107 0 -0.707107 -0.707107 
0.0142828 -0.0142828 -0.999796 0.0142828 -0.999796 -0.0142828 0.999796 -0.0142828 -0.0142828 
-1 0 0 0.707107 0 -0.707107 0.999898 0 -0.0142843 
-0.0101734 0.701965 -0.712139 -0.712139 -0.701965 -0.0101734 0 0.702002 -0.712175 
0 0.702002 -0.712175 0.0142843 0 -0.999898 0.999898 0 -0.0142843 
-0.0142828 -0.0142828 -0.999796 -0.707071 -0.707071 -0.010101 -0.707071 -0.707071 -0.010101 
0 0 -1 0 0 -1 0 0 -1 
0.0142843 0 -0.999898 0.999898 0 -0.0142843 -0.0142828 -0.0142828 -0.999796 
-0.0142828 -0.999796 -0.0142828 -0.57735 -0.57735 -0.57735 0 -0.0142843 -0.999898 
0 -0.999898 -0.0142843 0 -0.0142843 -0.999898 -0.701965 -0.712139 -0.0101734 
0 0 -1 0 0 -1 0 0 -1 
0 0 -1 0.0142828 0.0142828 -0.999796 0.999796 0.0142828 -0.0142828 
-0.0142828 -0.0142828 -0.999796 -0.57735 -0.57735 -0.57735 -0.57735 -0.57735 -0.57735 
0 0 -1 0 0 -1 0 0 -1 
0 0 -1 0 0 -1 0 0 -1 
0.0142828 0.0142828 -0.999796 0.707071 0.707071 -0.010101 0.707071 0.707071 -0.010101 
-0.0142828 -0.0142828 -0.999796 -0.57735 -0.57735 -0.57735 -0.999796 -0.0142828 -0.0142828 
0 0 -1 0 0 -1 0 0 -1 
0 0 -1 0 0 -1 0 0 -1 
0.0142843 0 -0.999898 0.712139 0.701965 -0.0101734 0.707071 0.707071 -0.010101 
-0.0142828 0.0142828 -0.999796 -0.999796 0.0142828 -0.0142828 0 0.0142843 -0.999898 
0 0 -1 0 0 -1 0 0 -1 
0 0 -1 0 0 -1 0.0142843 0 -0.999898 
0.580099 -0.571812 -0.580099 -0.0142828 0.999796 -0.0142828 -0.571812 0.580099 -0.580099 
-0.580099 0.571812 -0.580099 -0.0142843 0 -0.999898 0 0 -1 
0 0 -1 0 0 -1 0 0 -1 
0 0 -1 0.571812 -0.580099 -0.580099 0 -0.0142843 -0.999898 
0.0142828 -0.0142828 -0.999796 0.0142828 -0.999796 -0.0142828 0.999796 -0.0142828 -0.0142828 
-0.0142828 0.0142828 -0.999796 -0.999796 0.0142828 -0.0142828 0 0.0142843 -0.999898 
0 0 -1 0 0 -1 0 0 -1 
0 0 -1 0 0 -1 0.0142843 0 -0.999898 
0.999898 0 -0.0142843 -0.0142828 0.999796 -0.0142828 -0.571812 0.580099 -0.580099 
-0.580099 0.571812 -0.580099 -0.0142843 0 -0.999898 0 0 -1 
0 0 -1 0 0 -1 0 0 -1 
0.0142843 0 -0.999898 0.999898 0 -0.0142843 -0.0142828 0.0142828 -0.999796 
-0.999796 0.0142828 -0.0142828 0 0.0142843 -0.999898 0 0.0142843 -0.999898 
0 0.0142843 -0.999898 0 0 -1 0.0142843 0 -0.999898 
0.999898 0 -0.0142843 -0.0142828 0.999796 -0.0142828 0 0.999898 -0.0142843 
0 0.999898 -0.0142843 -0.701965 0.712139 -0.0101734 -0.712139 0.701965 -0.0101734 
-0.0142843 0 -0.999898 0.0142828 0.0142828 -0.999796 0.999796 0.0142828 -0.0142828 
0 0.0144912 -0.999895 -0.999895 0.0144912 0 0.702002 0.712175 0 
0.707071 0.707071 -0.010101 0 1 0 -0.010101 -0.707071 -0.707071 
-0.010101 -0.707071 -0.707071 -0.999796 -0.0142828 -0.0142828 0 -0.707107 -0.707107 
0 -0.707107 -0.707107 0.010101 -0.707071 -0.707071 0.010101 -0.707071 -0.707071 
0.57735 -0.57735 -0.57735 -1 0 0 0.580099 -0.580099 -0.571812 
0.999898 -0.0142843 0 -1 0 0 1 0 0 
-0.712175 -0.702002 0 1 0 0 -0.707107 -0.707107 0 
-0.707107 -0.707107 0 1 0 0 -0.57735 -0.57735 -0.57735 
-0.0142828 -0.999796 -0.0142828 -0.57735 -0.57735 -0.57735 0 -1 0 
0 -1 0 -0.702002 -0.712175 0 0.999898 0.0142843 0 
-0.57735 -0.57735 -0.57735 -0.57735 -0.57735 -0.57735 -0.999796 -0.0142828 -0.0142828 
0.707107 0.707107 0 0.707107 0.707107 0 -1 0 0 
1 0 0 0.999898 0.0142843 0 -0.999898 0.0142843 0 
0.999898 -0.0142843 0 0.580099 -0.580099 -0.571812 0.707107 -0.707107 0 
-0.580099 0.580099 -0.571812 -0.57735 0.57735 -0.57735 -0.57735 0.57735 -0.57735 
0.707107 -0.707107 0 0.999898 -0.0142843 0 -0.57735 0.57735 -0.57735 
-0.580099 0.580099 -0.571812 1 0 0 -0.580099 0.580099 -0.571812 
-0.57735 0.57735 -0.57735 -0.57735 0.57735 -0.57735 1 0 0 
-0.57735 0.57735 -0.57735 -0.580099 0.580099 -0.571812 0.999898 0 0.0142843 
-0.0142843 0.999898 0 0 1 0 0 1 0 
-0.702002 0.712175 0 -0.707071 0.707071 0.010101 0.999796 0.0142828 0.0142828 
-0.010101 0.707071 0.707071 0 0.712175 0.702002 0.0142828 0.999796 0.0142828 
0 -0.0142843 -0.999898 0 -0.999898 -0.0142843 -0.571812 -0.580099 -0.580099 
0.701965 -0.712139 -0.0101734 -0.010101 -0.707071 -0.707071 -0.57735 -0.57735 -0.57735 
-0.707071 -0.010101 -0.707071 0 -0.702002 -0.712175 0.701965 -0.712139 -0.0101734 
0 -0.707107 -0.707107 0.0142828 -0.0142828 -0.999796 0.0142828 -0.999796 -0.0142828 
0.999796 -0.0142828 -0.0142828 -0.712175 0 -0.702002 0.580099 -0.571812 -0.580099 
0.999898 0 -0.0142843 -0.712175 0 -0.702002 1 0 0 
-0.712175 0 -0.702002 1 0 0 -0.582888 -0.574561 -0.574561 
1 0 0 -0.580099 -0.580099 -0.571812 -0.580099 -0.580099 -0.571812 
0.999898 0 0.0142843 -0.57735 -0.57735 -0.57735 -0.010101 -0.707071 -0.707071 
-0.707071 -0.010101 -0.707071 0 -0.712175 -0.702002 0 -0.712175 -0.702002 
0 -0.712175 -0.702002 -0.574561 -0.582888 -0.574561 0.999796 0.0142828 0.0142828 
-0.712175 0 -0.702002 0.707071 0.707071 0.010101 0.707071 0.707071 0.010101 
-0.712175 0 -0.702002 0.712175 0.702002 0 0.707071 0.707071 0.010101 
-0.712175 0 -0.702002 0.580099 -0.580099 0.571812 0.582888 -0.574561 0.574561 
-0.580099 0.571812 -0.580099 -0.707107 0 -0.707107 0.574561 -0.582888 0.574561 
0.0142828 -0.999796 0.0142828 0.999796 -0.0142828 0.0142828 -0.0142828 0.0142828 -0.999796 
-0.999796 0.0142828 -0.0142828 -0.571812 0.580099 -0.580099 0.999898 0 0.0142843 
-0.0142828 0.999796 -0.0142828 -0.701965 0.712139 -0.0101734 -0.580099 0.571812 -0.580099 
-0.712139 0.701965 -0.0101734 0.999796 0.0142828 0.0142828 -0.0142828 0.0142828 -0.999796 
-0.999796 0.0142828 -0.0142828 -0.571812 0.580099 -0.580099 0.580099 0.571812 0.580099 
0.57735 0.57735 0.57735 0.57735 0.57735 0.57735 -0.0142828 0.999796 -0.0142828 
0 0.999898 -0.0142843 0 1 0 0 1 0 
0 1 0 0 0.999898 0.0142843 0.010101 0.707071 0.707071 
-0.010101 0.707071 0.707071 0.0142828 0.0142828 0.999796 -0.57735 -0.57735 -0.57735 
-0.010101 -0.707071 -0.707071 -0.707071 -0.707071 -0.010101 0.0101734 -0.712139 -0.701965 
0.707107 -0.707107 0 -0.712139 -0.0101734 -0.701965 -0.707107 -0.707107 0 
-0.999898 -0.0142843 0 0.702002 -0.712175 0 0.0142843 -0.999898 0 
0.999898 -0.0142843 0 -0.707107 0 -0.707107 -0.999898 0 -0.0142843 
1 0 0 -0.707107 0 -0.707107 -0.707107 0 -0.707107 
1 0 0 -0.707107 0 -0.707107 -0.707107 0 -0.707107 
1 0 0 -0.580099 -0.571812 -0.580099 -0.580099 -0.571812 -0.580099 
0.999898 0.0142843 0 -0.0101734 -0.712139 -0.701965 -0.0142843 -0.999898 0 
-0.707107 -0.707107 0 0 -0.712175 -0.702002 0 -1 0 
0 -0.712175 -0.702002 0 -1 0 0 -0.707107 -0.707107 
0 -0.999898 -0.0142843 -0.571812 -0.580099 -0.580099 -0.571812 -0.580099 -0.580099 
0.580099 0.571812 0.580099 0.582888 0.574561 0.574561 0.580099 0.580099 0.571812 
-0.707071 -0.010101 -0.707071 -0.707071 -0.707071 -0.010101 -0.707071 -0.010101 -0.707071 
0.707071 0.010101 0.707071 0.707071 0.010101 0.707071 -0.707107 0 -0.707107 
-0.707107 0 -0.707107 0.57735 0.57735 0.57735 0.582888 0.574561 0.574561 
0.57735 0.57735 0.57735 -0.707107 0 -0.707107 -0.707107 0 -0.707107 
1 0 0 -0.707107 0 -0.707107 -0.707107 0 -0.707107 
0.712175 -0.702002 0 -0.707071 0.010101 -0.707071 -0.707071 0.010101 -0.707071 
0.707071 -0.707071 0.010101 0.707071 -0.010101 0.707071 0.707071 -0.010101 0.707071 
-0.57735 0.57735 -0.57735 -0.580099 0.580099 -0.571812 0.707107 0 0.707107 
0.707107 0 0.707107 -0.0142843 0.999898 0 -0.702002 0.712175 0 
-0.712175 0.702002 0 0.707071 0.010101 0.707071 0.707071 0.010101 0.707071 
-0.999898 0.0142843 0 0.571812 0.580099 0.580099 0.580099 0.580099 0.571812 
0.574561 0.582888 0.574561 0.010101 0.707071 0.707071 0.010101 0.707071 0.707071 
-0.0142843 0.999898 0 0 1 0 0 1 0 
0 1 0 0.0142843 0.999898 0 -0.010101 -0.707071 -0.707071 
-0.0142828 -0.999796 -0.0142828 -0.999796 -0.0142828 -0.0142828 0.010101 -0.707071 -0.707071 
0.0142828 -0.999796 -0.0142828 0.999796 -0.0142828 -0.0142828 -1 0 0 
0.712175 -0.702002 0 -0.580099 -0.580099 0.571812 -0.582888 -0.574561 0.574561 
0.702002 -0.712175 0 0.0142828 -0.999796 0.0142828 0.999796 -0.0142828 0.0142828 
-0.580099 -0.580099 0.571812 -0.707107 -0.707107 0 0.999898 0 0.0142843 
-0.707071 -0.010101 -0.707071 -0.707071 -0.707071 -0.010101 -0.999796 -0.0142828 -0.0142828 
0.999898 0 0.0142843 -0.707107 0 -0.707107 -0.999898 0 -0.0142843 
0.999898 0 0.0142843 -0.580099 -0.571812 -0.580099 -0.712139 -0.701965 -0.0101734 
0.999796 0.0142828 0.0142828 -0.0101734 -0.712139 0.701965 0 -0.712175 0.702002 
-0.574561 -0.582888 0.574561 -0.580099 -0.580099 0.571812 -0.707107 -0.707107 0 
0.707071 0.707071 0.010101 0.707071 0.707071 0.010101 -0.0142828 -0.0142828 -0.999796 
-0.0142828 -0.999796 -0.0142828 -0.707071 -0.010101 -0.707071 0 -0.0142843 -0.999898 
0 -0.999898 -0.0142843 -0.701965 -0.0101734 -0.712139 0 -0.999898 -0.0142843 
0 -1 0 0 -0.712175 0.702002 0 -0.712175 0.702002 
-0.574561 -0.582888 0.574561 0.57735 0.57735 0.57735 0.582888 0.574561 0.574561 
0.57735 0.57735 0.57735 -0.0142843 0 -0.999898 -0.707107 0 -0.707107 
0 0 -1 -0.702002 0 -0.712175 1 0 0 
-0.0142843 0 -0.999898 -0.707107 0 -0.707107 0 0 -1 
-0.702002 0 -0.712175 1 0 0 -0.0142828 0.0142828 -0.999796 
-0.707071 0.010101 -0.707071 0 0.0142843 -0.999898 -0.702002 0 -0.712175 
1 0 0 -0.0142828 0.999796 -0.0142828 -0.571812 0.580099 -0.580099 
-0.580099 0.571812 -0.580099 -0.707107 0 -0.707107 0.707071 -0.010101 0.707071 
0.712175 0 0.702002 -0.0142828 0.0142828 -0.999796 -0.707071 0.010101 -0.707071 
-0.571812 0.580099 -0.580099 0.707107 0 0.707107 0.712175 0 0.702002 
-0.0142828 0.999796 -0.0142828 0 0.999898 -0.0142843 0 1 0 
-0.574561 0.582888 -0.574561 -0.582888 0.574561 -0.574561 0.707071 0.010101 0.707071 
0.712139 0.0101734 0.701965 -0.712139 0.0101734 -0.701965 0.707107 0.707107 0 
0.707107 0.707107 0 -0.0142843 0.999898 0 0 1 0 
0 1 0 0 1 0 0.0142843 0.999898 0 
-0.0142843 -0.999898 0 -0.999898 -0.0142843 0 0.0142843 -0.999898 0 
0.999898 -0.0142843 0 -1 0 0 0.712175 -0.702002 0 
-0.712175 -0.702002 0 0.707071 -0.707071 0.010101 0.707071 -0.010101 0.707071 
0.707071 -0.010101 0.707071 -0.707107 -0.707107 0 -0.707107 -0.707107 0 
0.707107 0 0.707107 0.707107 0 0.707107 -0.707107 -0.707107 0 
-0.999898 -0.0142843 0 0.707107 0 0.707107 0.707107 0 0.707107 
-1 0 0 0.707107 0 0.707107 0.707107 0 0.707107 
-0.712175 -0.702002 0 0.707071 0.010101 0.707071 0.707071 0.010101 0.707071 
-0.707107 -0.707107 0 -0.707107 -0.707107 0 0.57735 0.57735 0.57735 
0.582888 0.574561 0.574561 0.57735 0.57735 0.57735 -0.707071 -0.010101 -0.707071 
-0.0142828 -0.999796 -0.0142828 -0.707071 -0.010101 -0.707071 0 -1 0 
0 -1 0 0 -1 0 0 -1 0 
0 -1 0 0 -1 0 -0.702002 -0.712175 0 
1 0 0 -0.707107 0 -0.707107 -0.707107 0 -0.707107 
1 0 0 -0.707107 0 -0.707107 -0.707107 0 -0.707107 
1 0 0 -0.707071 0.010101 -0.707071 -0.707071 0.010101 -0.707071 
1 0 0 -0.010101 0.707071 -0.707071 -0.574561 0.582888 -0.574561 
-0.580099 0.571812 -0.580099 -0.580099 0.571812 -0.580099 1 0 0 
-0.707071 0.010101 -0.707071 -0.707071 0.010101 -0.707071 1 0 0 
-0.0142828 0.999796 -0.0142828 0 0.712175 -0.702002 0 0.712175 -0.702002 
-0.574561 0.582888 -0.574561 -0.580099 0.571812 -0.580099 -0.580099 0.571812 -0.580099 
0.999898 0.0142843 0 -0.707071 0.010101 -0.707071 -0.707071 0.010101 -0.707071 
0.707107 0.707107 0 0.707107 0.707107 0 -0.0142828 0.999796 -0.0142828 
0 1 0 0 1 0 0 1 0 
0 1 0 0.0142843 0.999898 0 -0.0142843 -0.999898 0 
-0.999898 -0.0142843 0 0.0142828 -0.999796 0.0142828 0.999796 -0.0142828 0.0142828 
-1 0 0 0.999898 0 0.0142843 -0.712175 -0.702002 0 
0.707071 -0.010101 0.707071 0.707107 0 0.707107 -0.707107 -0.707107 0 
-0.707107 -0.707107 0 0.707107 0 0.707107 0.707107 0 0.707107 
-0.707107 -0.707107 0 -0.999898 -0.0142843 0 0.707107 0 0.707107 
0.712175 0 0.702002 -0.712175 0 -0.702002 0.707107 0 0.707107 
0.712175 0 0.702002 -0.582888 -0.574561 -0.574561 0.707071 0.010101 0.707071 
0.712175 0 0.702002 -0.580099 -0.580099 -0.571812 -0.580099 -0.580099 -0.571812 
1 0 0 -0.707071 -0.010101 -0.707071 -0.0142828 -0.999796 -0.0142828 
-0.707071 -0.010101 -0.707071 0 -1 0 0 -1 0 
0 -1 0 0 -1 0 0 -1 0 
0 -1 0 0 -0.712175 -0.702002 -0.574561 -0.582888 -0.574561 
1 0 0 -0.707107 0 -0.707107 -0.707107 0 -0.707107 
1 0 0 -0.707107 0 -0.707107 -0.999898 0 -0.0142843 
1 0 0 -0.707107 0 -0.707107 -0.999898 0 -0.0142843 
1 0 0 -0.0142843 0 -0.999898 -0.999898 0 -0.0142843 
0 0.702002 -0.712175 -0.574561 0.574561 -0.582888 1 0 0 
-0.0142828 0.0142828 -0.999796 -0.999796 0.0142828 -0.0142828 0 0.0142843 -0.999898 
-0.701965 0.0101734 -0.712139 1 0 0 -0.0142828 0.999796 -0.0142828 
0 0.999898 -0.0142843 0 0.999898 -0.0142843 -0.702002 0.712175 0 
-0.0101734 0.701965 -0.712139 -0.712139 0.701965 -0.0101734 0 0.702002 -0.712175 