# vtk DataFile Version 3.0
vtk output
ASCII
DATASET POLYDATA
POINTS 544 float
87 80 47.0092 87 79.0092 48 86.0092 80 48 
88 80 47.0092 88 79.0092 48 89 80 47.0092 
89 79.0092 48 90 80 47.0092 90 79.0092 48 
91 80 47.0092 91 79.0092 48 92 80 47.0092 
92 79.0092 48 93 80 47.0092 93 79.0092 48 
94 80 47.0092 94 79.0092 48 95 80 47.0092 
95 79.0092 48 96 80 47.0092 96 79.0092 48 
96.9908 80 48 87 81 47.0092 86.0092 81 48 
88 81 47.0092 89 81 47.0092 90 81 47.0092 
91 81 47.0092 92 81 47.0092 93 81 47.0092 
94 81 47.0092 95 81 47.0092 96 81 47.0092 
96.9908 81 48 87 82 47.0092 86.0092 82 48 
88 82 47.0092 89 82 47.0092 90 82 47.0092 
91 82 47.0092 92 82 47.0092 93 82 47.0092 
94 82 47.0092 95 82 47.0092 96 82 47.0092 
96.9908 82 48 87 83 47.0092 86.0092 83 48 
88 83 47.0092 89 83 47.0092 90 83 47.0092 
91 83 47.0092 92 83 47.0092 93 83 47.0092 
94 83 47.0092 95 83 47.0092 95.9908 83 48 
96 82.9908 48 87 84 47.0092 86.0092 84 48 
88 84 47.0092 89 84 47.0092 90 84 47.0092 
91 84 47.0092 92 84 47.0092 93 84 47.0092 
94 84 47.0092 94.9908 84 48 95 83.9908 48 
87 85 47.0092 86.0092 85 48 88 85 47.0092 
89 85 47.0092 90 85 47.0092 91 85 47.0092 
92 85 47.0092 93 85 47.0092 94 85 47.0092 
94.9908 85 48 87 85.9908 48 88 85.9908 48 
88.0092 86 48 89 86 47.0092 90 86 47.0092 
91 86 47.0092 92 86 47.0092 93 86 47.0092 
94 86 47.0092 94.9908 86 48 89 87 47.0092 
88.0092 87 48 90 87 47.0092 91 87 47.0092 
92 87 47.0092 93 87 47.0092 93.9908 87 48 
94 86.9908 48 89 87.9908 48 90 87.9908 48 
91 87.9908 48 92 87.9908 48 93 87.9908 48 
87 79.0092 49 86.0092 80 49 88 79.0092 49 
89 79.0092 49 90 79.0092 49 91 79.0092 49 
92 79.0092 49 93 79.0092 49 94 79.0092 49 
95 79.0092 49 96 79.0092 49 96.9908 80 49 
86.0092 81 49 96.9908 81 49 86.0092 82 49 
96.9908 82 49 86 83 48.0092 86 82.0092 49 
85.0092 83 49 95.9908 83 49 96 82.9908 49 
86 84 48.0092 85.0092 84 49 94.9908 84 49 
95 83.9908 49 86 85 48.0092 85.0092 85 49 
94.9908 85 49 86 85.9908 49 87 85.9908 49 
88 86 48.0092 87.0092 86 49 94.9908 86 49 
88 87 48.0092 87.0092 87 49 94 87 48.0092 
94.9908 87 49 88 87.9908 49 89 87.9908 49 
90 87.9908 49 91 87.9908 49 92 87.9908 49 
93 87.9908 49 94 87.9908 49 87 80 49.9908 
88 80 49.9908 89 80 49.9908 90 80 49.9908 
91 80 49.9908 92 80 49.9908 93 80 49.9908 
94 80 49.9908 95 80 49.9908 96 80 49.9908 
87 81 49.9908 88 81 49.9908 89 81 49.9908 
90 81 49.9908 91 81 49.9908 92 81 49.9908 
93 81 49.9908 94 81 49.9908 95 81 49.9908 
96 81 49.9908 87 82 49.9908 88 82 49.9908 
89 82 49.9908 90 82 49.9908 91 82 49.9908 
92 82 49.9908 93 82 49.9908 94 82 49.9908 
95 82 49.9908 96 82 49.9908 86 82.0092 50 
85.0092 83 50 87 83 49.9908 86.9908 83 50 
88 83 49.9908 89 83 49.9908 90 83 49.9908 
91 83 49.9908 92 83 49.9908 93 83 49.9908 
94 83 49.9908 95 83 49.9908 85 84 49.0092 
85 83.0092 50 84.0092 84 50 87 83.0092 50 
88 83.0092 50 89 83.0092 50 90 83.0092 50 
91 84 49.9908 90.9908 84 50 92 84 49.9908 
92.0092 84 50 93 83.0092 50 94 83.0092 50 
95 84 49.0092 95 83.0092 50 96 84 49.0092 
96 83.0092 50 96.9908 84 50 85 85 49.0092 
84.0092 85 50 91 85 49.9908 90.9908 85 50 
91.0092 85 50 92 84.0092 50 95 85 49.0092 
96 85 49.0092 96.9908 85 50 85 86 49.0092 
84.0092 86 50 86 86 49.0092 87 86 49.0092 
91 85.0092 50 95 86 49.0092 96 86 49.0092 
96.9908 86 50 85 87 49.0092 84.0092 87 50 
86 87 49.0092 87 87 49.0092 95 87 49.0092 
95.9908 87 50 96 86.9908 50 85 87.9908 50 
86 87.9908 50 86.0092 88 50 87 88 49.0092 
88 88 49.0092 89 88 49.0092 90 88 49.0092 
91 88 49.0092 92 88 49.0092 93 88 49.0092 
94 88 49.0092 94.9908 88 50 95 87.9908 50 
87 89 49.0092 86.0092 89 50 88 89 49.0092 
89 89 49.0092 90 89 49.0092 91 89 49.0092 
92 89 49.0092 93 89 49.0092 93.9908 89 50 
94 88.9908 50 87 89.9908 50 88 89.9908 50 
89 89.9908 50 90 89.9908 50 91 89.9908 50 
92 89.9908 50 93 89.9908 50 86 83 50.9908 
85 83.0092 51 84.0092 84 51 86 83.0092 51 
87 83.0092 51 88 83.0092 51 89 83.0092 51 
90 84 50.9908 89.9908 84 51 93 83.0092 51 
92.0092 84 51 94 83.0092 51 95 83.0092 51 
96 84 50.9908 95.9908 84 51 84.0092 85 51 
90 84.0092 51 90.9908 85 51 92 85 50.9908 
92.0092 85 51 96 84.0092 51 96.9908 85 51 
84.0092 86 51 91 85.0092 51 92 85.0092 51 
96.9908 86 51 85 86.9908 51 85 87 50.9908 
85.0092 87 51 96 87 50.0092 96.9908 87 51 
86 87.9908 51 86.0092 88 51 94.9908 88 51 
95 87.9908 51 96 87.9908 51 86.0092 89 51 
94 89 50.0092 94.9908 89 51 87 89.9908 51 
88 89.9908 51 89 89.9908 51 90 89.9908 51 
91 89.9908 51 92 89.9908 51 93 89.9908 51 
94 89.9908 51 85 84 51.9908 86 84 51.9908 
87 84 51.9908 88 84 51.9908 89 84 51.9908 
93 84 51.9908 94 84 51.9908 95 84 51.9908 
85 85 51.9908 86 85 51.9908 87 85 51.9908 
88 85 51.9908 89 85 51.9908 90 85 51.9908 
93 85 51.9908 94 85 51.9908 95 85 51.9908 
96 85 51.9908 85 86 51.9908 86 86 51.9908 
86.0092 86 52 87 85.0092 52 88 85.0092 52 
89 85.0092 52 90 85.0092 52 91 86 51.9908 
90.9908 86 52 92 86 51.9908 93 86 51.9908 
94 86 51.9908 94.0092 86 52 95 85.0092 52 
96 85.0092 52 96.9908 86 52 86 86.0092 52 
85.0092 87 52 91 87 51.9908 90.9908 87 52 
92 87 51.9908 93 87 51.9908 93.0092 87 52 
94 86.0092 52 96.9908 87 52 86 87.9908 52 
86.0092 88 52 91 87.0092 52 92 87.0092 52 
93 87.0092 52 95 88 51.0092 96 88 51.0092 
96.9908 88 52 86.0092 89 52 95 89 51.0092 
95.9908 89 52 96 88.9908 52 87 89.9908 52 
88 89.9908 52 89 90 51.0092 88.0092 90 52 
90 90 51.0092 91 90 51.0092 92 90 51.0092 
93 90 51.0092 94 90 51.0092 94.9908 90 52 
95 89.9908 52 89 91 51.0092 88.0092 91 52 
90 91 51.0092 91 91 51.0092 92 91 51.0092 
93 91 51.0092 93.9908 91 52 94 90.9908 52 
89 91.9908 52 90 91.9908 52 91 91.9908 52 
92 91.9908 52 93 91.9908 52 87 85.0092 53 
86.0092 86 53 88 85.0092 53 89 85.0092 53 
90 86 52.9908 89.9908 86 53 95 85.0092 53 
94.0092 86 53 96 86 52.9908 95.9908 86 53 
86 87 52.9908 86.0092 87 53 90 86.0092 53 
90.9908 87 53 94 87 52.9908 94.0092 87 53 
96 87 52.9908 95.9908 87 53 86 87.0092 53 
85.0092 88 53 86 88 52.0092 91 87.0092 53 
92 87.0092 53 93 87.0092 53 94 87.0092 53 
96 88 52.9908 95.9908 88 53 86 88.9908 53 
86.0092 89 53 95 89 52.9908 94.9908 89 53 
95 88.9908 53 87 89.9908 53 88 89.9908 53 
88.0092 90 53 94.9908 90 53 88.0092 91 53 
93.9908 91 53 94 90.9908 53 89 91.9908 53 
90 91.9908 53 91 91.9908 53 92 91.9908 53 
93 91.9908 53 87 86 53.9908 88 86 53.9908 
89 86 53.9908 95 86 53.9908 87 87 53.9908 
88 87 53.9908 89 87 53.9908 90 87 53.9908 
95 87 53.9908 86 88 53.9908 86.0092 88 54 
87 87.0092 54 88 87.0092 54 89 87.0092 54 
90 87.0092 54 91 87.0092 54 92 87.0092 54 
93 87.0092 54 94 87.0092 54 95 88 53.9908 
94.9908 88 54 86.0092 89 54 94.9908 89 54 
87 89.9908 54 88 89.9908 54 88.0092 90 54 
94.9908 90 54 88.0092 91 54 93.9908 91 54 
94 90.9908 54 89 91.9908 54 90 91.9908 54 
91 91.9908 54 92 91.9908 54 93 91.9908 54 
87 87.0092 55 86.0092 88 55 88 87.0092 55 
89 87.0092 55 90 87.0092 55 91 87.0092 55 
92 87.0092 55 93 87.0092 55 94 88 54.9908 
93.9908 88 55 87 88.9908 55 87 89 54.9908 
87.0092 89 55 94 89 54.9908 93.9908 89 55 
88 89.9908 55 88.0092 90 55 94 89.0092 55 
94.9908 90 55 88.0092 91 55 93.9908 91 55 
94 90.9908 55 89 91.9908 55 90 91.9908 55 
91 91.9908 55 92 91.9908 55 93 91.9908 55 
87 88 55.9908 88 88 55.9908 89 88 55.9908 
90 88 55.9908 91 88 55.9908 92 88 55.9908 
93 88 55.9908 88 89 55.9908 89 89 55.9908 
90 89 55.9908 91 89 55.9908 92 89 55.9908 
93 89 55.9908 89 89.0092 56 88.0092 90 56 
90 89.0092 56 91 89.0092 56 92 89.0092 56 
93 89.0092 56 94 89.0092 56 94.9908 90 56 
88.0092 91 56 93.9908 91 56 94 90.9908 56 
89 91.9908 56 90 91.9908 56 91 91.9908 56 
92 91.9908 56 93 91.9908 56 89 89.0092 57 
88.0092 90 57 90 89.0092 57 91 89.0092 57 
92 89.0092 57 93 89.0092 57 94 90 56.9908 
93.9908 90 57 89 90.9908 57 89 91 56.9908 
90 90.9908 57 90 91 56.9908 91 90.9908 57 
91 91 56.9908 92 90.9908 57 92 91 56.9908 
93 90.9908 57 93 91 56.9908 89 90 57.9908 
90 90 57.9908 91 90 57.9908 92 90 57.9908 
93 90 57.9908 
POLYGONS 1084 4336
3 0 1 2 
3 0 3 4 
3 1 0 4 
3 3 5 6 
3 4 3 6 
3 5 7 8 
3 6 5 8 
3 7 9 10 
3 8 7 10 
3 9 11 12 
3 10 9 12 
3 11 13 14 
3 12 11 14 
3 13 15 16 
3 14 13 16 
3 15 17 18 
3 16 15 18 
3 17 19 20 
3 18 17 20 
3 20 19 21 
3 22 0 2 
3 23 22 2 
3 3 0 24 
3 24 0 22 
3 5 3 25 
3 25 3 24 
3 7 5 26 
3 26 5 25 
3 9 7 27 
3 27 7 26 
3 11 9 28 
3 28 9 27 
3 13 11 29 
3 29 11 28 
3 15 13 30 
3 30 13 29 
3 17 15 31 
3 31 15 30 
3 19 17 32 
3 32 17 31 
3 33 21 19 
3 32 33 19 
3 34 22 23 
3 35 34 23 
3 24 22 36 
3 36 22 34 
3 25 24 37 
3 37 24 36 
3 26 25 38 
3 38 25 37 
3 27 26 39 
3 39 26 38 
3 28 27 40 
3 40 27 39 
3 29 28 41 
3 41 28 40 
3 30 29 42 
3 42 29 41 
3 31 30 43 
3 43 30 42 
3 32 31 44 
3 44 31 43 
3 45 33 32 
3 44 45 32 
3 46 34 35 
3 47 46 35 
3 36 34 48 
3 48 34 46 
3 37 36 49 
3 49 36 48 
3 38 37 50 
3 50 37 49 
3 39 38 51 
3 51 38 50 
3 40 39 52 
3 52 39 51 
3 41 40 53 
3 53 40 52 
3 42 41 54 
3 54 41 53 
3 43 42 55 
3 55 42 54 
3 56 57 44 
3 56 44 55 
3 55 44 43 
3 45 44 57 
3 58 46 47 
3 59 58 47 
3 48 46 60 
3 60 46 58 
3 49 48 61 
3 61 48 60 
3 50 49 62 
3 62 49 61 
3 51 50 63 
3 63 50 62 
3 52 51 64 
3 64 51 63 
3 53 52 65 
3 65 52 64 
3 54 53 66 
3 66 53 65 
3 67 68 55 
3 67 55 66 
3 66 55 54 
3 56 55 68 
3 69 58 59 
3 70 69 59 
3 60 58 71 
3 71 58 69 
3 61 60 72 
3 72 60 71 
3 62 61 73 
3 73 61 72 
3 63 62 74 
3 74 62 73 
3 64 63 75 
3 75 63 74 
3 65 64 76 
3 76 64 75 
3 66 65 77 
3 77 65 76 
3 78 67 66 
3 77 78 66 
3 69 70 79 
3 71 69 79 
3 80 71 79 
3 80 81 82 
3 80 82 71 
3 71 82 72 
3 73 72 83 
3 83 72 82 
3 74 73 84 
3 84 73 83 
3 75 74 85 
3 85 74 84 
3 76 75 86 
3 86 75 85 
3 77 76 87 
3 87 76 86 
3 88 78 77 
3 87 88 77 
3 89 82 81 
3 90 89 81 
3 83 82 91 
3 91 82 89 
3 84 83 92 
3 92 83 91 
3 85 84 93 
3 93 84 92 
3 86 85 94 
3 94 85 93 
3 95 96 87 
3 95 87 94 
3 94 87 86 
3 88 87 96 
3 89 90 97 
3 91 89 97 
3 98 91 97 
3 92 91 98 
3 99 92 98 
3 93 92 99 
3 100 93 99 
3 94 93 100 
3 101 94 100 
3 95 94 101 
3 1 102 103 
3 2 1 103 
3 4 104 1 
3 1 104 102 
3 6 105 4 
3 4 105 104 
3 8 106 6 
3 6 106 105 
3 10 107 8 
3 8 107 106 
3 12 108 10 
3 10 108 107 
[...]
POINT_DATA 544
SCALARS scalars float
LOOKUP_TABLE default
1 1 1 1 1 1 1 1 1 
1 1 1 1 1 1 1 1 1 
1 1 1 1 1 1 1 1 1 
1 1 1 1 1 1 1 1 1 
1 1 1 1 1 1 1 1 1 
1 1 1 1 1 1 1 1 1 
1 1 1 1 1 1 1 1 1 
1 1 1 1 1 1 1 1 1 
1 1 1 1 1 1 1 1 1 
1 1 1 1 1 1 1 1 1 
1 1 1 1 1 1 1 1 1 
1 1 1 1 1 1 1 1 1 
1 1 1 1 1 1 1 1 1 
1 1 1 1 1 1 1 1 1 
1 1 1 1 1 1 1 1 1 
1 1 1 1 1 1 1 1 1 
1 1 1 1 1 1 1 1 1 
1 1 1 1 1 1 1 1 1 
1 1 1 1 1 1 1 1 1 
1 1 1 1 1 1 1 1 1 
1 1 1 1 1 1 1 1 1 
1 1 1 1 1 1 1 1 1 
1 1 1 1 1 1 1 1 1 
1 1 1 1 1 1 1 1 1 
1 1 1 1 1 1 1 1 1 
1 1 1 1 1 1 1 1 1 
1 1 1 1 1 1 1 1 1 
1 1 1 1 1 1 1 1 1 
1 1 1 1 1 1 1 1 1 
1 1 1 1 1 1 1 1 1 
1 1 1 1 1 1 1 1 1 
1 1 1 1 1 1 1 1 1 
1 1 1 1 1 1 1 1 1 
1 1 1 1 1 1 1 1 1 
1 1 1 1 1 1 1 1 1 
1 1 1 1 1 1 1 1 1 
1 1 1 1 1 1 1 1 1 
1 1 1 1 1 1 1 1 1 
1 1 1 1 1 1 1 1 1 
1 1 1 1 1 1 1 1 1 
1 1 1 1 1 1 1 1 1 
1 1 1 1 1 1 1 1 1 
1 1 1 1 1 1 1 1 1 
1 1 1 1 1 1 1 1 1 
1 1 1 1 1 1 1 1 1 
1 1 1 1 1 1 1 1 1 
1 1 1 1 1 1 1 1 1 
1 1 1 1 1 1 1 1 1 
1 1 1 1 1 1 1 1 1 
1 1 1 1 1 1 1 1 1 
1 1 1 1 1 1 1 1 1 
1 1 1 1 1 1 1 1 1 
1 1 1 1 1 1 1 1 1 
1 1 1 1 1 1 1 1 1 
1 1 1 1 1 1 1 1 1 
1 1 1 1 1 1 1 1 1 
1 1 1 1 1 1 1 1 1 
1 1 1 1 1 1 1 1 1 
1 1 1 1 1 1 1 1 1 
1 1 1 1 1 1 1 1 1 
1 1 1 1 
NORMALS normals float
-0.00917354 -0.00917354 -0.999916 -0.00917354 -0.999916 -0.00917354 -0.999916 -0.00917354 -0.00917354 
0 -0.00917393 -0.999958 0 -0.999958 -0.00917393 0 -0.00917393 -0.999958 
0 -0.999958 -0.00917393 0 -0.00917393 -0.999958 0 -0.999958 -0.00917393 
0 -0.00917393 -0.999958 0 -0.999958 -0.00917393 0 -0.00917393 -0.999958 
0 -0.999958 -0.00917393 0 -0.00917393 -0.999958 0 -0.999958 -0.00917393 
0 -0.00917393 -0.999958 0 -0.999958 -0.00917393 0 -0.00917393 -0.999958 
0 -0.999958 -0.00917393 0.00917354 -0.00917354 -0.999916 0.00917354 -0.999916 -0.00917354 
0.999916 -0.00917354 -0.00917354 -0.00917393 0 -0.999958 -0.999958 0 -0.00917393 
0 0 -1 0 0 -1 0 0 -1 
0 0 -1 0 0 -1 0 0 -1 
0 0 -1 0 0 -1 0.00917393 0 -0.999958 
0.999958 0 -0.00917393 -0.00917393 0 -0.999958 -0.999958 0 -0.00917393 
0 0 -1 0 0 -1 0 0 -1 
0 0 -1 0 0 -1 0 0 -1 
0 0 -1 0 0 -1 0.00917354 0.00917354 -0.999916 
0.999916 0.00917354 -0.00917354 -0.00917393 0 -0.999958 -0.707107 0 -0.707107 
0 0 -1 0 0 -1 0 0 -1 
0 0 -1 0 0 -1 0 0 -1 
0 0 -1 0.00917354 0.00917354 -0.999916 0.707092 0.707092 -0.00648708 
0.707092 0.707092 -0.00648708 -0.00917393 0 -0.999958 -0.707107 0 -0.707107 
0 0 -1 0 0 -1 0 0 -1 
0 0 -1 0 0 -1 0 0 -1 
0.00917393 0 -0.999958 0.710343 0.703826 -0.00651691 0.707092 0.707092 -0.00648708 
-0.00917354 0.00917354 -0.999916 -0.707092 0.00648708 -0.707092 0 0.00917393 -0.999958 
0 0 -1 0 0 -1 0 0 -1 
0 0 -1 0 0 -1 0.00917393 0 -0.999958 
0.999958 0 -0.00917393 -0.00917354 0.999916 -0.00917354 -0.573803 0.579116 -0.579116 
-0.579116 0.573803 -0.579116 -0.00917393 0 -0.999958 0 0 -1 
0 0 -1 0 0 -1 0 0 -1 
0.00917354 0.00917354 -0.999916 0.999916 0.00917354 -0.00917354 -0.00917354 0.00917354 -0.999916 
-0.707092 0.00648708 -0.707092 0 0.00917393 -0.999958 0 0.00917393 -0.999958 
0 0.00917393 -0.999958 0.00917354 0.00917354 -0.999916 0.57735 0.57735 -0.57735 
0.57735 0.57735 -0.57735 -0.00917354 0.999916 -0.00917354 0 0.999958 -0.00917393 
0 0.999958 -0.00917393 0 0.999958 -0.00917393 0.00917354 0.999916 -0.00917354 
-0.00917354 -0.999916 0.00917354 -0.999916 -0.00917354 0.00917354 0 -0.999958 0.00917393 
0 -0.999958 0.00917393 0 -0.999958 0.00917393 0 -0.999958 0.00917393 
0 -0.999958 0.00917393 0 -0.999958 0.00917393 0 -0.999958 0.00917393 
0 -0.999958 0.00917393 0.00917354 -0.999916 0.00917354 0.999916 -0.00917354 0.00917354 
-0.999958 0 0.00917393 0.999958 0 0.00917393 -0.710343 -0.703826 0.00651691 
0.999916 0.00917354 0.00917354 -0.707092 -0.00648708 -0.707092 -0.707092 -0.707092 -0.00648708 
-0.999916 -0.00917354 -0.00917354 0.707092 0.707092 0.00648708 0.707092 0.707092 0.00648708 
-0.707107 0 -0.707107 -0.707107 0 -0.707107 0.580898 0.575568 -0.575568 
0.580881 0.580881 -0.570223 -0.707092 0.00648708 -0.707092 -0.707092 0.00648708 -0.707092 
0.710358 0 -0.703841 -0.00648708 0.707092 -0.707092 -0.575568 0.580898 -0.575568 
-0.579116 0.573803 -0.579116 -0.579116 0.573803 -0.579116 0.710358 0 -0.703841 
-0.707092 0.00648708 -0.707092 -0.707092 0.00648708 -0.707092 0.57735 0.57735 -0.57735 
0.707092 0.00648708 -0.707092 -0.00648708 0.707092 -0.707092 0 0.710358 -0.703841 
0 0.710358 -0.703841 0 0.710358 -0.703841 0 0.710358 -0.703841 
0 0.710358 -0.703841 0.00648708 0.707092 -0.707092 -0.00917354 -0.00917354 0.999916 
0 -0.00917393 0.999958 0 -0.00917393 0.999958 0 -0.00917393 0.999958 
0 -0.00917393 0.999958 0 -0.00917393 0.999958 0 -0.00917393 0.999958 
0 -0.00917393 0.999958 0 -0.00917393 0.999958 0.00917354 -0.00917354 0.999916 
-0.00917393 0 0.999958 0 0 1 0 0 1 
0 0 1 0 0 1 0 0 1 
0 0 1 0 0 1 0 0 1 
0.00917393 0 0.999958 -0.00917393 0 0.999958 0 0 1 
0 0 1 0 0 1 0 0 1 
0 0 1 0 0 1 0 0 1 
0 0 1 0.00917354 0.00917354 0.999916 0 -0.999958 0.00917393 
-0.703826 -0.710343 0.00651691 0.575568 -0.575568 0.580898 0.573803 -0.579116 0.579116 
0 -0.703841 0.710358 0 -0.703841 0.710358 0 -0.703841 0.710358 
0 0 1 0 0 1 0 -0.703841 0.710358 
0 -0.703841 0.710358 0.00654686 -0.700514 0.713608 -0.707092 -0.00648708 -0.707092 
-0.707092 -0.707092 -0.00648708 -0.999916 -0.00917354 -0.00917354 0.575568 -0.580898 0.575568 
0 -0.710358 0.703841 0 -0.710358 0.703841 0.00648708 -0.707092 0.707092 
0.703841 0 0.710358 0.707092 -0.00648708 0.707092 -0.575568 -0.575568 0.580898 
-0.579116 -0.579116 0.573803 -0.00651691 -0.710343 0.703826 0 -0.710358 0.703841 
0.577334 0.571988 -0.582679 0 -0.713623 0.700529 0.00925847 -0.00925847 -0.999914 
0.00917393 -0.999958 0 0.999958 -0.00917393 0 -0.707107 0 -0.707107 
-0.999958 0 -0.00917393 0 -0.703841 0.710358 0.00654714 -0.707092 0.707092 
-0.00648708 -0.707092 0.707092 -0.57735 -0.57735 0.57735 0.703841 0 -0.710358 
0.00917393 0 -0.999958 0.999958 0 -0.00917393 -0.00917393 0 -0.999958 
-0.999958 0 -0.00917393 0 0.703841 -0.710358 -0.575568 0.575568 -0.580898 
0 -0.710358 0.703841 0.703841 0 -0.710358 0.00917354 0.00917354 -0.999916 
0.999916 0.00917354 -0.00917354 -0.00925847 0.00925847 -0.999914 -0.999958 0.00917393 0 
0 0.00917393 -0.999958 -0.703841 0 -0.710358 0.707092 0.00648708 -0.707092 
0.57735 0.57735 -0.57735 0.57735 0.57735 -0.57735 -0.00917393 0.999958 0 
-0.703826 0.710343 -0.00651691 -0.710343 0.703826 -0.00651691 -0.00917393 0 -0.999958 
0 0.703841 -0.710358 0 0.703841 -0.710358 0 0.703841 -0.710358 
0 0.703841 -0.710358 0 0.703841 -0.710358 0 0.703841 -0.710358 
0.00648708 0.707092 -0.707092 0.707092 0.707092 -0.00648708 0.707092 0.707092 -0.00648708 
-0.00917354 0.00917354 -0.999916 -0.999916 0.00917354 -0.00917354 0 0.00917393 -0.999958 
0 0.00917393 -0.999958 0 0.00917393 -0.999958 0 0.00917393 -0.999958 
0 0.00917393 -0.999958 0.00917354 0.00917354 -0.999916 0.57735 0.57735 -0.57735 
0.57735 0.57735 -0.57735 -0.00917354 0.999916 -0.00917354 0 0.999958 -0.00917393 
0 0.999958 -0.00917393 0 0.999958 -0.00917393 0 0.999958 -0.00917393 
0 0.999958 -0.00917393 0.00917354 0.999916 -0.00917354 0 -0.707107 0.707107 
-0.00917354 -0.999916 0.00917354 -0.999916 -0.00917354 0.00917354 0 -0.707107 0.707107 
0 -0.999958 0.00917393 0 -0.999958 0.00917393 0.00917354 -0.999916 0.00917354 
0.57735 -0.57735 0.57735 0.57735 -0.57735 0.57735 -0.00917354 -0.999916 0.00917354 
-0.999916 -0.00917354 0.00917354 0 -0.999958 0.00917393 0.00917354 -0.999916 0.00917354 
0.579116 -0.579116 0.573803 0.57735 -0.57735 0.57735 -0.999958 0 0.00917393 
0.57735 -0.57735 0.57735 0.707092 -0.707092 0.00648708 -0.57735 -0.57735 0.57735 
-0.579116 -0.573803 0.579116 0.57735 -0.57735 0.57735 0.999916 -0.00917354 0.00917354 
-0.999916 0.00917354 0.00917354 0.703826 -0.710343 0.00651691 -0.573803 -0.579116 0.579116 
1 0 0 -0.57735 0.57735 0.57735 -0.579116 0.579116 0.573803 
-0.579116 0.579116 0.573803 0.57735 0.57735 -0.57735 0.999916 0.00917354 -0.00917354 
-0.707107 0.707107 0 -0.710358 0.703841 0 0.580898 0.575568 -0.575568 
0.575568 0.580898 -0.575568 0.00648708 0.707092 -0.707092 -0.999958 0.00917393 0 
0.57735 0.57735 -0.57735 0.707092 0.00648708 -0.707092 -0.00917393 0.999958 0 
0 1 0 0 0.710358 -0.703841 0 0.710358 -0.703841 
0 0.710358 -0.703841 0 0.710358 -0.703841 0 0.710358 -0.703841 
0.00648708 0.707092 -0.707092 -0.00917354 -0.00917354 0.999916 0 -0.00917393 0.999958 
0 -0.00917393 0.999958 0 -0.00917393 0.999958 0.00917354 -0.00917354 0.999916 
-0.00917354 -0.00917354 0.999916 0 -0.00917393 0.999958 0.00917354 -0.00917354 0.999916 
-0.00917393 0 0.999958 0 0 1 0 -0.703841 0.710358 
0 -0.703841 0.710358 0 -0.703841 0.710358 0.00648708 -0.707092 0.707092 
-0.00917393 0 0.999958 0 0 1 0 -0.703841 0.710358 
0.00648708 -0.707092 0.707092 -0.00917354 0.00917354 0.999916 -0.575568 -0.575568 0.580898 
-0.579116 -0.579116 0.573803 -0.00651691 -0.710343 0.703826 0 -0.710358 0.703841 
0 -0.710358 0.703841 0.00648708 -0.707092 0.707092 0.703826 -0.00651691 0.710343 
0.707092 -0.00648708 0.707092 0 -0.00917393 0.999958 0 0 1 
-0.575568 -0.575568 0.580898 -0.579116 -0.579116 0.573803 -0.00651691 -0.710343 0.703826 
0.00648708 -0.707092 0.707092 0.999916 -0.00917354 0.00917354 -0.579116 -0.573803 0.579116 
-0.999958 0 0.00917393 0.575568 -0.575568 0.580898 0.580898 -0.575568 0.575568 
0 -0.703841 0.710358 -0.575568 -0.575568 0.580898 -0.57735 -0.57735 0.57735 
-0.57735 -0.57735 0.57735 0.999958 0 0.00917393 -0.582679 0.577334 -0.571988 
-0.580898 0.575568 -0.575568 0.575568 -0.580898 0.575568 0 -0.710358 0.703841 
-0.575568 -0.580898 0.575568 0.575568 0.575568 -0.580898 0.00651691 0.710343 -0.703826 
0.999958 0.00917393 0 -0.999958 0.00917393 0 0.710343 0.00651691 -0.703826 
0.707107 0.707107 0 0.707107 0.707107 0 -0.00917393 0.999958 0 
-0.703841 0.710358 0 -0.00651691 0.703826 -0.710343 -0.710343 0.703826 -0.00651691 
0 0.703841 -0.710358 0 0.703841 -0.710358 0 0.703841 -0.710358 
0 0.703841 -0.710358 0.00648708 0.707092 -0.707092 0.707092 0.707092 -0.00648708 
0.707107 0.707107 0 -0.00917354 0.00917354 -0.999916 -0.999916 0.00917354 -0.00917354 
0 0.00917393 -0.999958 0 0.00917393 -0.999958 0 0.00917393 -0.999958 
0.00917354 0.00917354 -0.999916 0.707092 0.707092 -0.00648708 0.707092 0.707092 -0.00648708 
-0.00917354 0.999916 -0.00917354 0 0.999958 -0.00917393 0 0.999958 -0.00917393 
0 0.999958 -0.00917393 0.00917354 0.999916 -0.00917354 -0.00917354 -0.999916 0.00917354 
-0.999916 -0.00917354 0.00917354 0 -0.999958 0.00917393 0.00917354 -0.999916 0.00917354 
0.57735 -0.57735 0.57735 0.57735 -0.57735 0.57735 0 -0.999958 0.00917393 
-0.999914 -0.00925847 0.00925847 0.707092 -0.00648708 0.707092 0.703826 -0.00651691 0.710343 
-0.579116 -0.573803 0.579116 -0.579116 -0.573803 0.579116 0.57735 -0.57735 0.57735 
0.707092 -0.707092 0.00648708 -0.57735 -0.57735 0.57735 -0.575568 -0.575568 0.580898 
0.707107 0 0.707107 0.703841 0 0.710358 -0.580898 -0.575568 0.575568 
-1 0 0 -0.580898 0.575568 -0.575568 0.703841 -0.710358 0 
0 -1 0 0 -1 0 -0.575568 -0.580898 0.575568 
0.710343 0.00651691 0.703826 0.707092 0.00648708 0.707092 -0.710358 0.703841 0 
-0.707107 0.707107 0 0.579116 0.579116 0.573803 0.580898 0.575568 0.575568 
0.57735 0.57735 0.57735 -0.00917393 0.999958 0 -0.703841 0.710358 0 
-0.710358 0.703841 0 0.999958 0.00917393 0 -0.999958 0.00917393 0 
0.707107 0.707107 0 0.707107 0.707107 0 -0.00917393 0.999958 0 
0 1 0 0 1 0 0 1 0 
0.00917393 0.999958 0 -0.00917354 -0.00917354 0.999916 0 -0.00917393 0.999958 
0.00917354 -0.00917354 0.999916 0 -0.00917393 0.999958 -0.00651691 -0.703826 0.710343 
0 -0.703841 0.710358 0 -0.703841 0.710358 0.00648708 -0.707092 0.707092 
0 0 1 -0.710358 0 0.703841 -0.710343 -0.00651691 0.703826 
-0.00651691 -0.710343 0.703826 0 -0.710358 0.703841 0 -0.710358 0.703841 
0 -0.710358 0.703841 0 -1 0 0 -1 0 
0 -1 0 0.00917354 -0.999916 0.00917354 0.707092 0.00648708 0.707092 
0.707092 -0.00648708 0.707092 -0.999916 0.00917354 0.00917354 0.999958 0 0.00917393 
-0.00917354 0.999916 0.00917354 -0.703841 0.710358 0 -0.710358 0.703841 0 
0.999958 0.00917393 0 -0.999958 0.00917393 0 0.707107 0.707107 0 
0.707107 0.707107 0 -0.00917393 0.999958 0 0 1 0 
0 1 0 0 1 0 0.00917393 0.999958 0 
-0.00925847 -0.999914 0.00925847 -0.999958 0 0.00917393 0 -0.999958 0.00917393 
0 -0.999958 0.00917393 0 -0.999958 0.00917393 0 -0.999958 0.00917393 
0 -0.999958 0.00917393 0.00917354 -0.999916 0.00917354 0.707092 -0.00648708 0.707092 
0.707092 -0.00648708 0.707092 -0.579116 0.573803 0.579116 -0.57735 0.57735 0.57735 
-0.57735 0.57735 0.57735 0.579116 -0.573803 0.579116 0.579116 -0.573803 0.579116 
-0.707092 0.707092 0.00648708 -0.710358 0.703841 0 0.580898 -0.575568 0.575568 
1 0 0 -0.999958 0.00917393 0 0.707107 0.707107 0 
0.710358 0.703841 0 -0.00917393 0.999958 0 0 1 0 
0 1 0 0 1 0 0.00917393 0.999958 0 
-0.00917393 0 0.999958 0 -0.00917393 0.999958 0 -0.00917393 0.999958 
0 -0.00917393 0.999958 0 -0.00917393 0.999958 0 -0.00917393 0.999958 
0.00917354 -0.00917354 0.999916 -0.00917354 0.00917354 0.999916 0 -0.703841 0.710358 
0 -0.703841 0.710358 0 -0.703841 0.710358 0 -0.703841 0.710358 
0.00651691 -0.703826 0.710343 -0.00651691 -0.710343 0.703826 -0.999958 -0.00917393 0 
0 -0.710358 0.703841 0 -0.710358 0.703841 0 -0.710358 0.703841 
0 -0.710358 0.703841 0.00925847 -0.999914 0.00925847 0.999958 0 0.00917393 
-0.999916 0.00917354 0.00917354 0.707092 0.707092 0.00648708 0.710343 0.703826 0.00651691 
-0.00917354 0.999916 0.00917354 0 0.999958 0.00917393 0 0.999958 0.00917393 
0 0.999958 0.00917393 0.00917354 0.999916 0.00917354 -0.00925847 -0.999914 0.00925847 
-0.999958 0 0.00917393 0 -0.999957 0.00925886 0 -0.999957 0.00925886 
0 -0.999957 0.00925886 0.00925847 -0.999914 0.00925847 0.707107 0 0.707107 
0.707107 0 0.707107 -0.00651691 0.703826 0.710343 -0.00648708 0.707092 0.707092 
0 0.703841 0.710358 0 0.707107 0.707107 0 0.703841 0.710358 
0 0.707107 0.707107 0 0.703841 0.710358 0 0.707107 0.707107 
0.00651691 0.703826 0.710343 0.00648708 0.707092 0.707092 -0.00917393 0 0.999958 
0 0 1 0 0 1 0 0 1 
0.00917393 0 0.999958 
