# vtk DataFile Version 3.0
vtk output
ASCII
DATASET POLYDATA
POINTS 4272 float
45 51 52.0189 45 50.0189 53 44.0189 51 53 
45.9811 51 53 44 52 52.0189 44 51.0189 53 
43.0189 52 53 45 51.9811 53 44.9811 52 53 
42 53 52.0189 42 52.0189 53 41.0189 53 53 
43 53 52.0189 43 52.0189 53 44 53 52.0189 
44.9811 53 53 42 54 52.0189 41.0189 54 53 
42.9811 54 53 43 53.9811 53 44 53.9811 53 
42 55 52.0189 41.0189 55 53 42.9811 55 53 
42 56 52.0189 41.0189 56 53 42.9811 56 53 
40 57 52.0189 40 56.0189 53 39.0189 57 53 
41 57 52.0189 41 56.0189 53 42 57 52.0189 
42.9811 57 53 40 58 52.0189 39.0189 58 53 
40.9811 58 53 41 57.9811 53 42 57.9811 53 
40 59 52.0189 39.0189 59 53 40.9811 59 53 
40 60 52.0189 39.0189 60 53 40.9811 60 53 
40 61 52.0189 39.0189 61 53 41 60.0189 53 
41 61 52.0189 42 61 52.0189 42 60.0189 53 
42.9811 61 53 40 61.9811 53 41 61.9811 53 
42 61.9811 53 40 63 52.0189 40 62.0189 53 
39.0189 63 53 41 63 52.0189 41 62.0189 53 
41.9811 63 53 40 63.9811 53 41 63.9811 53 
45 50 53.0189 45 49.0189 54 44.0189 50 54 
46 50 53.0189 46 49.0189 54 46.9811 50 54 
44 51 53.0189 44 50.0189 54 43.0189 51 54 
46 51 53.0189 46.9811 51 54 41 52 53.0189 
41 51.0189 54 40.0189 52 54 42 52 53.0189 
42 51.0189 54 43 52 53.0189 43 51.0189 54 
45 52 53.0189 46 52 53.0189 46.9811 52 54 
40 53 53.0189 40 52.0189 54 39.0189 53 54 
41 53 53.0189 45 53 53.0189 46 53 53.0189 
46.9811 53 54 39 54 53.0189 39 53.0189 54 
38.0189 54 54 40 54 53.0189 41 54 53.0189 
43 54 53.0189 44 54 53.0189 45 54 53.0189 
46 54 53.0189 46.9811 54 54 39 55 53.0189 
38.0189 55 54 40 55 53.0189 41 55 53.0189 
43 55 53.0189 44 55 53.0189 45 55 53.0189 
45.9811 55 54 46 54.9811 54 39 56 53.0189 
38.0189 56 54 40 56 53.0189 41 56 53.0189 
43 56 53.0189 44 56 53.0189 44.9811 56 54 
45 55.9811 54 38 57 53.0189 38 56.0189 54 
37.0189 57 54 39 57 53.0189 43 57 53.0189 
44 57 53.0189 44.9811 57 54 37 58 53.0189 
37 57.0189 54 36.0189 58 54 38 58 53.0189 
39 58 53.0189 41 58 53.0189 42 58 53.0189 
43 58 53.0189 44 58 53.0189 44.9811 58 54 
36 59 53.0189 36 58.0189 54 35.0189 59 54 
37 59 53.0189 38 59 53.0189 39 59 53.0189 
41 59 53.0189 42 59 53.0189 43 59 53.0189 
44 59 53.0189 44.9811 59 54 35 60 53.0189 
35 59.0189 54 34.0189 60 54 36 60 53.0189 
37 60 53.0189 38 60 53.0189 39 60 53.0189 
41 60 53.0189 42 60 53.0189 43 60 53.0189 
44 60 53.0189 44.9811 60 54 34 61 53.0189 
34 60.0189 54 33.0189 61 54 35 61 53.0189 
36 61 53.0189 37 61 53.0189 38 61 53.0189 
39 61 53.0189 43 61 53.0189 43.9811 61 54 
44 60.9811 54 33 62 53.0189 33 61.0189 54 
32.0189 62 54 34 62 53.0189 35 62 53.0189 
36 62 53.0189 37 62 53.0189 38 62 53.0189 
39 62 53.0189 40 62 53.0189 41 62 53.0189 
42 62 53.0189 42.9811 62 54 43 61.9811 54 
33 63 53.0189 32.0189 63 54 34 63 53.0189 
35 63 53.0189 36 63 53.0189 37 63 53.0189 
38 63 53.0189 39 63 53.0189 42 63 53.0189 
42.9811 63 54 33 63.9811 54 34 63.9811 54 
35 63.9811 54 36 63.9811 54 37 63.9811 54 
38 63.9811 54 39 63.9811 54 40 63.9811 54 
41 64 53.0189 40.0189 64 54 42 64 53.0189 
42.9811 64 54 41 65 53.0189 40.0189 65 54 
42 65 53.0189 42.9811 65 54 41 66 53.0189 
40.0189 66 54 42 66 53.0189 42.9811 66 54 
41 67 53.0189 40.0189 67 54 41.9811 67 54 
42 66.9811 54 41 67.9811 54 44 50 54.0189 
44 49.0189 55 43.0189 50 55 45 49.0189 55 
46 49.0189 55 46.9811 50 55 41 51 54.0189 
41 50.0189 55 40.0189 51 55 42 51 54.0189 
42 50.0189 55 43 51 54.0189 43 50.0189 55 
46.9811 51 55 40 52 54.0189 40 51.0189 55 
39.0189 52 55 46.9811 52 55 39 53 54.0189 
39 52.0189 55 38.0189 53 55 46.9811 53 55 
38 54 54.0189 38 53.0189 55 37.0189 54 55 
46.9811 54 55 38 55 54.0189 37.0189 55 55 
45.9811 55 55 46 54.9811 55 38 56 54.0189 
37.0189 56 55 44.9811 56 55 45 55.9811 55 
36 57 54.0189 36 56.0189 55 35.0189 57 55 
37 57 54.0189 37 56.0189 55 44.9811 57 55 
36 58 54.0189 35.0189 58 55 44.9811 58 55 
34 59 54.0189 34 58.0189 55 33.0189 59 55 
35 59 54.0189 35 58.0189 55 44.9811 59 55 
34 60 54.0189 33.0189 60 55 44.9811 60 55 
33 61 54.0189 33 60.0189 55 32.0189 61 55 
43.9811 61 55 44 60.9811 55 32 62 54.0189 
32 61.0189 55 31.0189 62 55 42.9811 62 55 
43 61.9811 55 32 62.9811 55 32.0189 63 55 
42.9811 63 55 33 63.9811 55 34 63.9811 55 
35 63.9811 55 36 63.9811 55 37 63.9811 55 
38 63.9811 55 39 63.9811 55 40 64 54.0189 
39.0189 64 55 42.9811 64 55 40 65 54.0189 
39.0189 65 55 42.9811 65 55 40 65.9811 55 
40.0189 66 55 42.9811 66 55 40.0189 67 55 
41.9811 67 55 42 66.9811 55 41 67.9811 55 
41 50 55.0189 41 49.0189 56 40.0189 50 56 
42 50 55.0189 42 49.0189 56 43 50 55.0189 
43 49.0189 56 44 49.0189 56 45 49.0189 56 
46 49.0189 56 46.9811 50 56 40 51 55.0189 
40 50.0189 56 39.0189 51 56 46.9811 51 56 
39 52 55.0189 39 51.0189 56 38.0189 52 56 
46.9811 52 56 38 53 55.0189 38 52.0189 56 
37.0189 53 56 46.9811 53 56 37 54 55.0189 
37 53.0189 56 36.0189 54 56 46.9811 54 56 
36 55 55.0189 36 54.0189 56 35.0189 55 56 
37 55 55.0189 46 55 55.0189 46.9811 55 56 
35 56 55.0189 35 55.0189 56 34.0189 56 56 
36 56 55.0189 37 56 55.0189 45 56 55.0189 
46 56 55.0189 46.9811 56 56 34 57 55.0189 
34 56.0189 56 33.0189 57 56 35 57 55.0189 
45 57 55.0189 45.9811 57 56 46 56.9811 56 
33 58 55.0189 33 57.0189 56 32.0189 58 56 
34 58 55.0189 35 58 55.0189 44.9811 58 56 
45 57.9811 56 33 59 55.0189 32.0189 59 56 
44.9811 59 56 33 60 55.0189 32.0189 60 56 
44.9811 60 56 32 61 55.0189 32 60.0189 56 
31.0189 61 56 44 61 55.0189 44.9811 61 56 
31 62 55.0189 31 61.0189 56 30.0189 62 56 
43 62 55.0189 44 62 55.0189 44.9811 62 56 
31 63 55.0189 30.0189 63 56 32 63 55.0189 
43 63 55.0189 43.9811 63 56 44 62.9811 56 
31 63.9811 56 32 63.9811 56 33 63.9811 56 
34 63.9811 56 35 63.9811 56 36 63.9811 56 
37 64 55.0189 36.0189 64 56 38 64 55.0189 
39 64 55.0189 42.9811 64 56 43 63.9811 56 
37 65 55.0189 36.0189 65 56 38 65 55.0189 
39 65 55.0189 42.9811 65 56 37 65.9811 56 
38 65.9811 56 39 65.9811 56 40 65.9811 56 
40.0189 66 56 42.9811 66 56 40.0189 67 56 
41.9811 67 56 42 66.9811 56 41 67.9811 56 
46 47 56.0189 46 46.0189 57 45.0189 47 57 
46.9811 47 57 46 48 56.0189 45.0189 48 57 
46.9811 48 57 41 49 56.0189 41 48.0189 57 
40.0189 49 57 42 49 56.0189 42 48.0189 57 
43 49 56.0189 43 48.0189 57 44 49 56.0189 
44 48.0189 57 45 49 56.0189 45 48.0189 57 
46 49 56.0189 46.9811 49 57 40 50 56.0189 
40 49.0189 57 39.0189 50 57 46.9811 50 57 
39 51 56.0189 39 50.0189 57 38.0189 51 57 
46.9811 51 57 38 52 56.0189 38 51.0189 57 
37.0189 52 57 46.9811 52 57 37 53 56.0189 
37 52.0189 57 36.0189 53 57 46.9811 53 57 
36.0189 54 57 46.9811 54 57 36 54.0189 57 
35.0189 55 57 46.9811 55 57 35 55.0189 57 
34.0189 56 57 46.9811 56 57 34 56.0189 57 
33.0189 57 57 46 57 56.0189 46.9811 57 57 
33 57.0189 57 32.0189 58 57 44.9811 58 57 
45 57.9811 57 46 57.9811 57 32.0189 59 57 
44.9811 59 57 32.0189 60 57 44.9811 60 57 
32 60.0189 57 31.0189 61 57 44.9811 61 57 
31 61.0189 57 30.0189 62 57 44.9811 62 57 
30.0189 63 57 44 63 56.0189 44.9811 63 57 
31 63.9811 57 32 63.9811 57 33 63.9811 57 
34 63.9811 57 35 63.9811 57 36 64 56.0189 
35.0189 64 57 42.9811 64 57 43 63.9811 57 
44 63.9811 57 36 64.9811 57 36.0189 65 57 
42.9811 65 57 37 65.9811 57 38 65.9811 57 
39 65.9811 57 40 66 56.0189 39.0189 66 57 
42.9811 66 57 40 66.9811 57 40.0189 67 57 
42 67 56.0189 42.9811 67 57 41 67.9811 57 
42 67.9811 57 43 46 57.0189 43 45.0189 58 
42.0189 46 58 44 46 57.0189 44 45.0189 58 
45 46 57.0189 45 45.0189 58 46 46 57.0189 
46 45.0189 58 46.9811 46 58 42 47 57.0189 
42 46.0189 58 41.0189 47 58 43 47 57.0189 
44 47 57.0189 45 47 57.0189 46.9811 47 58 
41 48 57.0189 41 47.0189 58 40.0189 48 58 
42 48 57.0189 43 48 57.0189 44 48 57.0189 
45 48 57.0189 47 47.0189 58 47 48 57.0189 
48 48 57.0189 48 47.0189 58 48.9811 48 58 
40 49 57.0189 40 48.0189 58 39.0189 49 58 
47 49 57.0189 48 49 57.0189 48.9811 49 58 
39 50 57.0189 39 49.0189 58 38.0189 50 58 
47 50 57.0189 48 50 57.0189 48.9811 50 58 
38 51 57.0189 38 50.0189 58 37.0189 51 58 
47 51 57.0189 48 51 57.0189 48.9811 51 58 
37 52 57.0189 37 51.0189 58 36.0189 52 58 
47 52 57.0189 48 52 57.0189 48.9811 52 58 
36.0189 53 58 47 53 57.0189 48 53 57.0189 
48.9811 53 58 36.0189 54 58 47 54 57.0189 
48 54 57.0189 48.9811 54 58 36 54.0189 58 
35.0189 55 58 47 55 57.0189 48 55 57.0189 
48.9811 55 58 35 55.0189 58 34.0189 56 58 
47 56 57.0189 48 56 57.0189 48.9811 56 58 
34 56.0189 58 33.0189 57 58 47 57 57.0189 
47.9811 57 58 48 56.9811 58 33 57.0189 58 
32.0189 58 58 45 58 57.0189 46 58 57.0189 
46.9811 58 58 47 57.9811 58 32.0189 59 58 
45 59 57.0189 46 59 57.0189 46.9811 59 58 
32.0189 60 58 45 60 57.0189 46 60 57.0189 
46.9811 60 58 32 60.0189 58 31.0189 61 58 
45 61 57.0189 45.9811 61 58 46 60.9811 58 
31 61.0189 58 30.0189 62 58 44.9811 62 58 
45 61.9811 58 30.0189 63 58 44.9811 63 58 
31 63.9811 58 32 63.9811 58 33 63.9811 58 
34 63.9811 58 35 64 57.0189 34.0189 64 58 
43 64 57.0189 44 64 57.0189 45 63.0189 58 
45 64 57.0189 46 64 57.0189 46 63.0189 58 
46.9811 64 58 35 65 57.0189 34.0189 65 58 
36 65 57.0189 43 65 57.0189 44 65 57.0189 
45 65 57.0189 46 65 57.0189 46.9811 65 58 
35 65.9811 58 36 65.9811 58 37 65.9811 58 
38 65.9811 58 39 66 57.0189 38.0189 66 58 
43 66 57.0189 44 66 57.0189 45 66 57.0189 
46 66 57.0189 46.9811 66 58 39 67 57.0189 
38.0189 67 58 40 67 57.0189 43 67 57.0189 
44 67 57.0189 45 67 57.0189 46 67 57.0189 
46.9811 67 58 39 67.9811 58 40 67.9811 58 
41 67.9811 58 42 67.9811 58 43 67.9811 58 
44 67.9811 58 44.0189 68 58 45 68 57.0189 
46 68 57.0189 46.9811 68 58 45 69 57.0189 
44.0189 69 58 45.9811 69 58 46 68.9811 58 
45 69.9811 58 68 24 58.0189 68 23.0189 59 
67.0189 24 59 68.9811 24 59 67 25 58.0189 
67 24.0189 59 66.0189 25 59 68 25 58.0189 
68.9811 25 59 66 26 58.0189 66 25.0189 59 
65.0189 26 59 67 25.9811 59 66.9811 26 59 
68 25.9811 59 65 27 58.0189 65 26.0189 59 
64.0189 27 59 66 27 58.0189 66.9811 27 59 
64 28 58.0189 64 27.0189 59 63.0189 28 59 
65 27.9811 59 64.9811 28 59 66 27.9811 59 
61 29 58.0189 61 28.0189 59 60.0189 29 59 
62 29 58.0189 62 28.0189 59 63 29 58.0189 
63 28.0189 59 64 29 58.0189 64.9811 29 59 
[...]
POINT_DATA 4272
SCALARS scalars float
LOOKUP_TABLE default
1 1 1 1 1 1 1 1 1 
1 1 1 1 1 1 1 1 1 
1 1 1 1 1 1 1 1 1 
1 1 1 1 1 1 1 1 1 
1 1 1 1 1 1 1 1 1 
1 1 1 1 1 1 1 1 1 
1 1 1 1 1 1 1 1 1 
1 1 1 1 1 1 1 1 1 
1 1 1 1 1 1 1 1 1 
1 1 1 1 1 1 1 1 1 
1 1 1 1 1 1 1 1 1 
1 1 1 1 1 1 1 1 1 
1 1 1 1 1 1 1 1 1 
1 1 1 1 1 1 1 1 1 
1 1 1 1 1 1 1 1 1 
1 1 1 1 1 1 1 1 1 
1 1 1 1 1 1 1 1 1 
1 1 1 1 1 1 1 1 1 
1 1 1 1 1 1 1 1 1 
1 1 1 1 1 1 1 1 1 
1 1 1 1 1 1 1 1 1 
1 1 1 1 1 1 1 1 1 
1 1 1 1 1 1 1 1 1 
1 1 1 1 1 1 1 1 1 
1 1 1 1 1 1 1 1 1 
1 1 1 1 1 1 1 1 1 
1 1 1 1 1 1 1 1 1 
1 1 1 1 1 1 1 1 1 
1 1 1 1 1 1 1 1 1 
1 1 1 1 1 1 1 1 1 
1 1 1 1 1 1 1 1 1 
1 1 1 1 1 1 1 1 1 
1 1 1 1 1 1 1 1 1 
1 1 1 1 1 1 1 1 1 
1 1 1 1 1 1 1 1 1 
1 1 1 1 1 1 1 1 1 
1 1 1 1 1 1 1 1 1 
1 1 1 1 1 1 1 1 1 
1 1 1 1 1 1 1 1 1 
1 1 1 1 1 1 1 1 1 
1 1 1 1 1 1 1 1 1 
1 1 1 1 1 1 1 1 1 
1 1 1 1 1 1 1 1 1 
1 1 1 1 1 1 1 1 1 
1 1 1 1 1 1 1 1 1 
1 1 1 1 1 1 1 1 1 
1 1 1 1 1 1 1 1 1 
1 1 1 1 1 1 1 1 1 
1 1 1 1 1 1 1 1 1 
1 1 1 1 1 1 1 1 1 
1 1 1 1 1 1 1 1 1 
1 1 1 1 1 1 1 1 1 
1 1 1 1 1 1 1 1 1 
1 1 1 1 1 1 1 1 1 
1 1 1 1 1 1 1 1 1 
1 1 1 1 1 1 1 1 1 
1 1 1 1 1 1 1 1 1 
1 1 1 1 1 1 1 1 1 
1 1 1 1 1 1 1 1 1 
1 1 1 1 1 1 1 1 1 
1 1 1 1 1 1 1 1 1 
1 1 1 1 1 1 1 1 1 
1 1 1 1 1 1 1 1 1 
1 1 1 1 1 1 1 1 1 
1 1 1 1 1 1 1 1 1 
1 1 1 1 1 1 1 1 1 
1 1 1 1 1 1 1 1 1 
1 1 1 1 1 1 1 1 1 
1 1 1 1 1 1 1 1 1 
1 1 1 1 1 1 1 1 1 
1 1 1 1 1 1 1 1 1 
1 1 1 1 1 1 1 1 1 
1 1 1 1 1 1 1 1 1 
1 1 1 1 1 1 1 1 1 
1 1 1 1 1 1 1 1 1 
1 1 1 1 1 1 1 1 1 
1 1 1 1 1 1 1 1 1 
1 1 1 1 1 1 1 1 1 
1 1 1 1 1 1 1 1 1 
1 1 1 1 1 1 1 1 1 
1 1 1 1 1 1 1 1 1 
1 1 1 1 1 1 1 1 1 
1 1 1 1 1 1 1 1 1 
1 1 1 1 1 1 1 1 1 
1 1 1 1 1 1 1 1 1 
1 1 1 1 1 1 1 1 1 
1 1 1 1 1 1 1 1 1 
1 1 1 1 1 1 1 1 1 
1 1 1 1 1 1 1 1 1 
1 1 1 1 1 1 1 1 1 
1 1 1 1 1 1 1 1 1 
1 1 1 1 1 1 1 1 1 
1 1 1 1 1 1 1 1 1 
1 1 1 1 1 1 1 1 1 
1 1 1 1 1 1 1 1 1 
1 1 1 1 1 1 1 1 1 
1 1 1 1 1 1 1 1 1 
1 1 1 1 1 1 1 1 1 
1 1 1 1 1 1 1 1 1 
1 1 1 1 1 1 1 1 1 
1 1 1 1 1 1 1 1 1 
1 1 1 1 1 1 1 1 1 
1 1 1 1 1 1 1 1 1 
1 1 1 1 1 1 1 1 1 
1 1 1 1 1 1 1 1 1 
1 1 1 1 1 1 1 1 1 
1 1 1 1 1 1 1 1 1 
1 1 1 1 1 1 1 1 1 
1 1 1 1 1 1 1 1 1 
1 1 1 1 1 1 1 1 1 
1 1 1 1 1 1 1 1 1 
1 1 1 1 1 1 1 1 1 
1 1 1 1 1 1 1 1 1 
1 1 1 1 1 1 1 1 1 
1 1 1 1 1 1 1 1 1 
1 1 1 1 1 1 1 1 1 
1 1 1 1 1 1 1 1 1 
1 1 1 1 1 1 1 1 1 
1 1 1 1 1 1 1 1 1 
1 1 1 1 1 1 1 1 1 
1 1 1 1 1 1 1 1 1 
1 1 1 1 1 1 1 1 1 
1 1 1 1 1 1 1 1 1 
1 1 1 1 1 1 1 1 1 
1 1 1 1 1 1 1 1 1 
1 1 1 1 1 1 1 1 1 
1 1 1 1 1 1 1 1 1 
1 1 1 1 1 1 1 1 1 
1 1 1 1 1 1 1 1 1 
1 1 1 1 1 1 1 1 1 
1 1 1 1 1 1 1 1 1 
1 1 1 1 1 1 1 1 1 
1 1 1 1 1 1 1 1 1 
1 1 1 1 1 1 1 1 1 
1 1 1 1 1 1 1 1 1 
1 1 1 1 1 1 1 1 1 
1 1 1 1 1 1 1 1 1 
1 1 1 1 1 1 1 1 1 
1 1 1 1 1 1 1 1 1 
1 1 1 1 1 1 1 1 1 
1 1 1 1 1 1 1 1 1 
1 1 1 1 1 1 1 1 1 
1 1 1 1 1 1 1 1 1 
1 1 1 1 1 1 1 1 1 
1 1 1 1 1 1 1 1 1 
1 1 1 1 1 1 1 1 1 
1 1 1 1 1 1 1 1 1 
1 1 1 1 1 1 1 1 1 
1 1 1 1 1 1 1 1 1 
1 1 1 1 1 1 1 1 1 
1 1 1 1 1 1 1 1 1 
1 1 1 1 1 1 1 1 1 
1 1 1 1 1 1 1 1 1 
1 1 1 1 1 1 1 1 1 
1 1 1 1 1 1 1 1 1 
1 1 1 1 1 1 1 1 1 
1 1 1 1 1 1 1 1 1 
1 1 1 1 1 1 1 1 1 
1 1 1 1 1 1 1 1 1 
1 1 1 1 1 1 1 1 1 
1 1 1 1 1 1 1 1 1 
1 1 1 1 1 1 1 1 1 
1 1 1 1 1 1 1 1 1 
1 1 1 1 1 1 1 1 1 
1 1 1 1 1 1 1 1 1 
1 1 1 1 1 1 1 1 1 
1 1 1 1 1 1 1 1 1 
1 1 1 1 1 1 1 1 1 
1 1 1 1 1 1 1 1 1 
1 1 1 1 1 1 1 1 1 
1 1 1 1 1 1 1 1 1 
1 1 1 1 1 1 1 1 1 
1 1 1 1 1 1 1 1 1 
1 1 1 1 1 1 1 1 1 
1 1 1 1 1 1 1 1 1 
1 1 1 1 1 1 1 1 1 
1 1 1 1 1 1 1 1 1 
1 1 1 1 1 1 1 1 1 
1 1 1 1 1 1 1 1 1 
1 1 1 1 1 1 1 1 1 
1 1 1 1 1 1 1 1 1 
1 1 1 1 1 1 1 1 1 
1 1 1 1 1 1 1 1 1 
1 1 1 1 1 1 1 1 1 
1 1 1 1 1 1 1 1 1 
1 1 1 1 1 1 1 1 1 
1 1 1 1 1 1 1 1 1 
1 1 1 1 1 1 1 1 1 
1 1 1 1 1 1 1 1 1 
1 1 1 1 1 1 1 1 1 
1 1 1 1 1 1 1 1 1 
1 1 1 1 1 1 1 1 1 
1 1 1 1 1 1 1 1 1 
1 1 1 1 1 1 1 1 1 
1 1 1 1 1 1 1 1 1 
1 1 1 1 1 1 1 1 1 
1 1 1 1 1 1 1 1 1 
1 1 1 1 1 1 1 1 1 
1 1 1 1 1 1 1 1 1 
1 1 1 1 1 1 1 1 1 
1 1 1 1 1 1 1 1 1 
1 1 1 1 1 1 1 1 1 
1 1 1 1 1 1 1 1 1 
1 1 1 1 1 1 1 1 1 
1 1 1 1 1 1 1 1 1 
1 1 1 1 1 1 1 1 1 
1 1 1 1 1 1 1 1 1 
1 1 1 1 1 1 1 1 1 
1 1 1 1 1 1 1 1 1 
1 1 1 1 1 1 1 1 1 
1 1 1 1 1 1 1 1 1 
1 1 1 1 1 1 1 1 1 
1 1 1 1 1 1 1 1 1 
1 1 1 1 1 1 1 1 1 
1 1 1 1 1 1 1 1 1 
1 1 1 1 1 1 1 1 1 
1 1 1 1 1 1 1 1 1 
1 1 1 1 1 1 1 1 1 
1 1 1 1 1 1 1 1 1 
1 1 1 1 1 1 1 1 1 
1 1 1 1 1 1 1 1 1 
1 1 1 1 1 1 1 1 1 
1 1 1 1 1 1 1 1 1 
1 1 1 1 1 1 1 1 1 
1 1 1 1 1 1 1 1 1 
1 1 1 1 1 1 1 1 1 
1 1 1 1 1 1 1 1 1 
1 1 1 1 1 1 1 1 1 
1 1 1 1 1 1 1 1 1 
1 1 1 1 1 1 1 1 1 
1 1 1 1 1 1 1 1 1 
1 1 1 1 1 1 1 1 1 
1 1 1 1 1 1 1 1 1 
1 1 1 1 1 1 1 1 1 
1 1 1 1 1 1 1 1 1 
1 1 1 1 1 1 1 1 1 
1 1 1 1 1 1 1 1 1 
1 1 1 1 1 1 1 1 1 
1 1 1 1 1 1 1 1 1 
1 1 1 1 1 1 1 1 1 
1 1 1 1 1 1 1 1 1 
1 1 1 1 1 1 1 1 1 
1 1 1 1 1 1 1 1 1 
1 1 1 1 1 1 1 1 1 
1 1 1 1 1 1 1 1 1 
1 1 1 1 1 1 1 1 1 
1 1 1 1 1 1 1 1 1 
1 1 1 1 1 1 1 1 1 
1 1 1 1 1 1 1 1 1 
1 1 1 1 1 1 1 1 1 
1 1 1 1 1 1 1 1 1 
1 1 1 1 1 1 1 1 1 
1 1 1 1 1 1 1 1 1 
1 1 1 1 1 1 1 1 1 
1 1 1 1 1 1 1 1 1 
1 1 1 1 1 1 1 1 1 
1 1 1 1 1 1 1 1 1 
1 1 1 1 1 1 1 1 1 
1 1 1 1 1 1 1 1 1 
1 1 1 1 1 1 1 1 1 
1 1 1 1 1 1 1 1 1 
1 1 1 1 1 1 1 1 1 
1 1 1 1 1 1 1 1 1 
1 1 1 1 1 1 1 1 1 
1 1 1 1 1 1 1 1 1 
1 1 1 1 1 1 1 1 1 
1 1 1 1 1 1 1 1 1 
1 1 1 1 1 1 1 1 1 
1 1 1 1 1 1 1 1 1 
1 1 1 1 1 1 1 1 1 
1 1 1 1 1 1 1 1 1 
1 1 1 1 1 1 1 1 1 
1 1 1 1 1 1 1 1 1 
1 1 1 1 1 1 1 1 1 
1 1 1 1 1 1 1 1 1 
1 1 1 1 1 1 1 1 1 
1 1 1 1 1 1 1 1 1 
1 1 1 1 1 1 1 1 1 
1 1 1 1 1 1 1 1 1 
1 1 1 1 1 1 1 1 1 
1 1 1 1 1 1 1 1 1 
1 1 1 1 1 1 1 1 1 
1 1 1 1 1 1 1 1 1 
1 1 1 1 1 1 1 1 1 
1 1 1 1 1 1 1 1 1 
1 1 1 1 1 1 1 1 1 
1 1 1 1 1 1 1 1 1 
1 1 1 1 1 1 1 1 1 
1 1 1 1 1 1 1 1 1 
1 1 1 1 1 1 1 1 1 
1 1 1 1 1 1 1 1 1 
1 1 1 1 1 1 1 1 1 
1 1 1 1 1 1 1 1 1 
1 1 1 1 1 1 1 1 1 
1 1 1 1 1 1 1 1 1 
1 1 1 1 1 1 1 1 1 
1 1 1 1 1 1 1 1 1 
1 1 1 1 1 1 1 1 1 
1 1 1 1 1 1 1 1 1 
1 1 1 1 1 1 1 1 1 
1 1 1 1 1 1 1 1 1 
1 1 1 1 1 1 1 1 1 
1 1 1 1 1 1 1 1 1 
1 1 1 1 1 1 1 1 1 
1 1 1 1 1 1 1 1 1 
1 1 1 1 1 1 1 1 1 
1 1 1 1 1 1 1 1 1 
1 1 1 1 1 1 1 1 1 
1 1 1 1 1 1 1 1 1 
1 1 1 1 1 1 1 1 1 
1 1 1 1 1 1 1 1 1 
1 1 1 1 1 1 1 1 1 
1 1 1 1 1 1 1 1 1 
1 1 1 1 1 1 1 1 1 
1 1 1 1 1 1 1 1 1 
1 1 1 1 1 1 1 1 1 
1 1 1 1 1 1 1 1 1 
1 1 1 1 1 1 1 1 1 
1 1 1 1 1 1 1 1 1 
1 1 1 1 1 1 1 1 1 
1 1 1 1 1 1 1 1 1 
1 1 1 1 1 1 1 1 1 
1 1 1 1 1 1 1 1 1 
1 1 1 1 1 1 1 1 1 
1 1 1 1 1 1 1 1 1 
1 1 1 1 1 1 1 1 1 
1 1 1 1 1 1 1 1 1 
1 1 1 1 1 1 1 1 1 
1 1 1 1 1 1 1 1 1 
1 1 1 1 1 1 1 1 1 
1 1 1 1 1 1 1 1 1 
1 1 1 1 1 1 1 1 1 
1 1 1 1 1 1 1 1 1 
1 1 1 1 1 1 1 1 1 
1 1 1 1 1 1 1 1 1 
1 1 1 1 1 1 1 1 1 
1 1 1 1 1 1 1 1 1 
1 1 1 1 1 1 1 1 1 
1 1 1 1 1 1 1 1 1 
1 1 1 1 1 1 1 1 1 
1 1 1 1 1 1 1 1 1 
1 1 1 1 1 1 1 1 1 
1 1 1 1 1 1 1 1 1 
1 1 1 1 1 1 1 1 1 
1 1 1 1 1 1 1 1 1 
1 1 1 1 1 1 1 1 1 
1 1 1 1 1 1 1 1 1 
1 1 1 1 1 1 1 1 1 
1 1 1 1 1 1 1 1 1 
1 1 1 1 1 1 1 1 1 
1 1 1 1 1 1 1 1 1 
1 1 1 1 1 1 1 1 1 
1 1 1 1 1 1 1 1 1 
1 1 1 1 1 1 1 1 1 
1 1 1 1 1 1 1 1 1 
1 1 1 1 1 1 1 1 1 
1 1 1 1 1 1 1 1 1 
1 1 1 1 1 1 1 1 1 
1 1 1 1 1 1 1 1 1 
1 1 1 1 1 1 1 1 1 
1 1 1 1 1 1 1 1 1 
1 1 1 1 1 1 1 1 1 
1 1 1 1 1 1 1 1 1 
1 1 1 1 1 1 1 1 1 
1 1 1 1 1 1 1 1 1 
1 1 1 1 1 1 1 1 1 
1 1 1 1 1 1 1 1 1 
1 1 1 1 1 1 1 1 1 
1 1 1 1 1 1 1 1 1 
1 1 1 1 1 1 1 1 1 
1 1 1 1 1 1 1 1 1 
1 1 1 1 1 1 1 1 1 
1 1 1 1 1 1 1 1 1 
1 1 1 1 1 1 1 1 1 
1 1 1 1 1 1 1 1 1 
1 1 1 1 1 1 1 1 1 
1 1 1 1 1 1 1 1 1 
1 1 1 1 1 1 1 1 1 
1 1 1 1 1 1 1 1 1 
1 1 1 1 1 1 1 1 1 
1 1 1 1 1 1 1 1 1 
1 1 1 1 1 1 1 1 1 
1 1 1 1 1 1 1 1 1 
1 1 1 1 1 1 1 1 1 
1 1 1 1 1 1 1 1 1 
1 1 1 1 1 1 1 1 1 
1 1 1 1 1 1 1 1 1 
1 1 1 1 1 1 1 1 1 
1 1 1 1 1 1 1 1 1 
1 1 1 1 1 1 1 1 1 
1 1 1 1 1 1 1 1 1 
1 1 1 1 1 1 1 1 1 
1 1 1 1 1 1 1 1 1 
1 1 1 1 1 1 1 1 1 
1 1 1 1 1 1 1 1 1 
1 1 1 1 1 1 1 1 1 
1 1 1 1 1 1 1 1 1 
1 1 1 1 1 1 1 1 1 
1 1 1 1 1 1 1 1 1 
1 1 1 1 1 1 1 1 1 
1 1 1 1 1 1 1 1 1 
1 1 1 1 1 1 1 1 1 
1 1 1 1 1 1 1 1 1 
1 1 1 1 1 1 1 1 1 
1 1 1 1 1 1 1 1 1 
1 1 1 1 1 1 1 1 1 
1 1 1 1 1 1 1 1 1 
1 1 1 1 1 1 1 1 1 
1 1 1 1 1 1 1 1 1 
1 1 1 1 1 1 1 1 1 
1 1 1 1 1 1 1 1 1 
1 1 1 1 1 1 1 1 1 
1 1 1 1 1 1 1 1 1 
1 1 1 1 1 1 1 1 1 
1 1 1 1 1 1 1 1 1 
1 1 1 1 1 1 1 1 1 
1 1 1 1 1 1 1 1 1 
1 1 1 1 1 1 1 1 1 
1 1 1 1 1 1 1 1 1 
1 1 1 1 1 1 1 1 1 
1 1 1 1 1 1 1 1 1 
1 1 1 1 1 1 1 1 1 
1 1 1 1 1 1 1 1 1 
1 1 1 1 1 1 1 1 1 
1 1 1 1 1 1 1 1 1 
1 1 1 1 1 1 1 1 1 
1 1 1 1 1 1 1 1 1 
1 1 1 1 1 1 1 1 1 
1 1 1 1 1 1 1 1 1 
1 1 1 1 1 1 1 1 1 
1 1 1 1 1 1 1 1 1 
1 1 1 1 1 1 1 1 1 
1 1 1 1 1 1 1 1 1 
1 1 1 1 1 1 1 1 1 
1 1 1 1 1 1 1 1 1 
1 1 1 1 1 1 1 1 1 
1 1 1 1 1 1 1 1 1 
1 1 1 1 1 1 1 1 1 
1 1 1 1 1 1 1 1 1 
1 1 1 1 1 1 1 1 1 
1 1 1 1 1 1 1 1 1 
1 1 1 1 1 1 1 1 1 
1 1 1 1 1 1 1 1 1 
1 1 1 1 1 1 1 1 1 
1 1 1 1 1 1 1 1 1 
1 1 1 1 1 1 1 1 1 
1 1 1 1 1 1 1 1 1 
1 1 1 1 1 1 1 1 1 
1 1 1 1 1 1 1 1 1 
1 1 1 1 1 1 1 1 1 
1 1 1 1 1 1 1 1 1 
1 1 1 1 1 1 1 1 1 
1 1 1 1 1 1 1 1 1 
1 1 1 1 1 1 1 1 1 
1 1 1 1 1 1 1 1 1 
1 1 1 1 1 1 1 1 1 
1 1 1 1 1 1 1 1 1 
1 1 1 1 1 1 1 1 1 
1 1 1 1 1 1 1 1 1 
1 1 1 1 1 1 1 1 1 
1 1 1 1 1 1 1 1 1 
1 1 1 1 1 1 1 1 1 
1 1 1 1 1 1 1 1 1 
1 1 1 1 1 1 1 1 1 
1 1 1 1 1 1 1 1 1 
1 1 1 1 1 1 1 1 1 
1 1 1 1 1 1 1 1 1 
1 1 1 1 1 1 1 1 1 
1 1 1 1 1 1 1 1 1 
1 1 1 1 1 1 1 1 1 
1 1 1 1 1 1 1 1 1 
1 1 1 1 1 1 1 1 1 
1 1 1 1 1 1 1 1 1 
1 1 1 1 1 1 1 1 1 
1 1 1 1 1 1 
NORMALS normals float
0 0 -1 0 -0.700341 -0.713809 -0.57365 -0.57365 -0.584681 
0.700341 0 -0.713809 0 -0.0188646 -0.999822 -0.570019 -0.580981 -0.580981 
-0.570019 -0.580981 -0.580981 0.57365 0.57365 -0.584681 0.577279 0.566178 -0.588381 
-0.0188612 -0.0188612 -0.999644 -0.0133404 -0.707044 -0.707044 -0.707044 -0.0133404 -0.707044 
0 0 -1 -0.57365 -0.57365 -0.584681 0.0188612 0.0188612 -0.999644 
0.707044 0.0133404 -0.707044 0 0 -1 -0.700341 0 -0.713809 
0.57365 0.57365 -0.584681 0.57365 0.57365 -0.584681 0.0133404 0.707044 -0.707044 
0 0 -1 -0.700341 0 -0.713809 0.700341 0 -0.713809 
0 0 -1 -0.57365 -0.57365 -0.584681 0.700341 0 -0.713809 
-0.0188612 -0.0188612 -0.999644 -0.0133404 -0.707044 -0.707044 -0.707044 -0.0133404 -0.707044 
0 0 -1 -0.57365 -0.57365 -0.584681 0.0188612 0.0188612 -0.999644 
0.707044 0.0133404 -0.707044 0 0 -1 -0.700341 0 -0.713809 
0.57365 0.57365 -0.584681 0.57365 0.57365 -0.584681 0.0133404 0.707044 -0.707044 
0 0 -1 -0.700341 0 -0.713809 0.700341 0 -0.713809 
0 0 -1 -0.700341 0 -0.713809 0.57365 -0.57365 -0.584681 
-0.0188612 0.0188612 -0.999644 -0.707044 0.0133404 -0.707044 0.57365 -0.57365 -0.584681 
0 0 -1 0.0188646 0 -0.999822 0.0134669 -0.700277 -0.713744 
0.707107 0 -0.707107 -0.0188612 0.0188612 -0.999644 0 0 -1 
0.0134669 0.700277 -0.713744 -0.0188646 0 -0.999822 -0.0188646 0 -0.999822 
-0.707107 0 -0.707107 0.0188646 0 -0.999822 0.0188646 0 -0.999822 
0.707107 0 -0.707107 -0.0192237 0.99963 -0.0192237 0.0134669 0.700277 -0.713744 
-0.0133404 -0.707044 -0.707044 -0.0188612 -0.999644 -0.0188612 -0.57735 -0.57735 -0.57735 
0.0188612 -0.0188612 -0.999644 0.0188612 -0.999644 -0.0188612 0.999644 -0.0188612 -0.0188612 
-0.57735 -0.57735 -0.57735 -0.57735 -0.57735 -0.57735 -0.57735 -0.57735 -0.57735 
0.707107 0 -0.707107 0.999822 0 -0.0188646 -0.0188612 -0.0188612 -0.999644 
-0.0133404 -0.707044 -0.707044 -0.57735 -0.57735 -0.57735 0 -0.707107 -0.707107 
0 -0.707107 -0.707107 -0.570019 -0.580981 -0.580981 -0.570019 -0.580981 -0.580981 
0.57365 0.57365 -0.584681 0.0188646 0 -0.999822 0.999822 0 -0.0188646 
-0.0188612 -0.0188612 -0.999644 -0.57735 -0.57735 -0.57735 -0.57735 -0.57735 -0.57735 
-0.700341 0 -0.713809 0.700341 0 -0.713809 0.0188646 0 -0.999822 
0.999822 0 -0.0188646 -0.0188612 -0.0188612 -0.999644 -0.57735 -0.57735 -0.57735 
-0.707044 -0.0133404 -0.707044 0 0 -1 -0.700341 0 -0.713809 
0.57365 0.57365 -0.584681 0 0.700341 -0.713809 0 0 -1 
0.0188612 0.0188612 -0.999644 0.999644 0.0188612 -0.0188612 -0.0188646 0 -0.999822 
-0.707107 0 -0.707107 0 0 -1 -0.700341 0 -0.713809 
0.700341 0 -0.713809 0 0 -1 0.0188612 0.0188612 -0.999644 
0.707044 0.707044 -0.0133404 0.707044 0.707044 -0.0133404 -0.0188646 0 -0.999822 
-0.580981 -0.570019 -0.580981 0 -0.700341 -0.713809 -0.57365 -0.57365 -0.584681 
0.700341 0 -0.713809 0.0188646 0 -0.999822 0.713744 0.700277 -0.0134669 
0.707044 0.707044 -0.0133404 -0.0188612 -0.0188612 -0.999644 -0.57735 -0.57735 -0.57735 
-0.57735 -0.57735 -0.57735 -0.700341 0 -0.713809 0.700341 0 -0.713809 
0.0188646 0 -0.999822 0.999822 0 -0.0188646 -0.0188612 -0.0188612 -0.999644 
-0.57735 -0.57735 -0.57735 -0.57735 -0.57735 -0.57735 0 0 -1 
-0.700341 0 -0.713809 0.57365 0.57365 -0.584681 0 0.700341 -0.713809 
0 0 -1 0.0188646 0 -0.999822 0.999822 0 -0.0188646 
-0.0188612 -0.0188612 -0.999644 -0.57735 -0.57735 -0.57735 -0.57735 -0.57735 -0.57735 
0 0 -1 0 0 -1 -0.700341 0 -0.713809 
0.700341 0 -0.713809 0 0 -1 0 0 -1 
0.0188646 0 -0.999822 0.999822 0 -0.0188646 -0.0188612 -0.0188612 -0.999644 
-0.57735 -0.57735 -0.57735 -0.57735 -0.57735 -0.57735 0 0 -1 
0 0 -1 0 0 -1 -0.700341 0 -0.713809 
0.57365 -0.57365 -0.584681 0 -0.700341 -0.713809 0 0 -1 
0.0188612 0.0188612 -0.999644 0.999644 0.0188612 -0.0188612 -0.0188612 -0.0188612 -0.999644 
-0.57735 -0.57735 -0.57735 -0.57735 -0.57735 -0.57735 0 0 -1 
0 0 -1 0 0 -1 0 0 -1 
-0.700341 0 -0.713809 0.707044 0.0133404 -0.707044 0.707044 0.707044 -0.0133404 
0.707044 0.707044 -0.0133404 -0.0188612 -0.0188612 -0.999644 -0.57735 -0.57735 -0.57735 
-0.707044 -0.0133404 -0.707044 0 0 -1 0 0 -1 
0 0 -1 0 0 -1 0 0 -1 
0 0 -1 0 0 -1 0 0 -1 
0.0134669 0.700277 -0.713744 0.713744 0.700277 -0.0134669 0.707044 0.707044 -0.0133404 
-0.0188612 0.0188612 -0.999644 -0.999644 0.0188612 -0.0188612 0 0.0188646 -0.999822 
0 0.0188646 -0.999822 0 0.0188646 -0.999822 0 0.0188646 -0.999822 
0 0.0188646 -0.999822 -0.700277 0.0134669 -0.713744 0.707107 0 -0.707107 
0.999822 0 -0.0188646 -0.0188612 0.999644 -0.0188612 0 0.999822 -0.0188646 
0 0.999822 -0.0188646 0 0.999822 -0.0188646 0 0.999822 -0.0188646 
0 0.999822 -0.0188646 0 0.999822 -0.0188646 -0.57365 0.584681 -0.57365 
-0.0134669 0.700277 -0.713744 -0.580981 0.570019 -0.580981 0.0188646 0 -0.999822 
0.999822 0 -0.0188646 -0.0188646 0 -0.999822 -0.707107 0 -0.707107 
0.0188646 0 -0.999822 0.999822 0 -0.0188646 -0.0188646 0 -0.999822 
-0.999822 0 -0.0188646 0.0188612 0.0188612 -0.999644 0.999644 0.0188612 -0.0188612 
0 0.0188646 -0.999822 -0.99963 0.0192237 -0.0192237 0.700277 0.713744 -0.0134669 
0.707044 0.707044 -0.0133404 0 0.999822 -0.0188646 -0.57735 -0.57735 -0.57735 
-0.0188612 -0.999644 -0.0188612 -0.57735 -0.57735 -0.57735 0 -1 0 
0.0188646 -0.999822 0 0.999822 -0.0188646 0 -0.0133404 -0.707044 -0.707044 
-0.0133404 -0.707044 -0.707044 -0.57735 -0.57735 -0.57735 0 -0.707107 -0.707107 
0 -0.707107 -0.707107 -0.570019 -0.580981 -0.580981 -0.570019 -0.580981 -0.580981 
1 0 0 -0.57735 -0.57735 -0.57735 -0.57735 -0.57735 -0.57735 
-0.57735 -0.57735 -0.57735 1 0 0 -0.57735 -0.57735 -0.57735 
-0.57735 -0.57735 -0.57735 -0.57735 -0.57735 -0.57735 1 0 0 
-0.707044 -0.0133404 -0.707044 -0.57735 -0.57735 -0.57735 -0.707044 -0.0133404 -0.707044 
0.999822 0.0188646 0 -0.707107 0 -0.707107 -0.707107 0 -0.707107 
0.580981 0.580981 -0.570019 0.580981 0.580981 -0.570019 -0.580981 -0.570019 -0.580981 
-0.580981 -0.570019 -0.580981 0.584681 0.57365 -0.57365 0.580981 0.580981 -0.570019 
-0.0188612 -0.0188612 -0.999644 -0.0133404 -0.707044 -0.707044 -0.707044 -0.0133404 -0.707044 
-0.570019 -0.580981 -0.580981 -0.570019 -0.580981 -0.580981 0.713809 0 -0.700341 
-0.580981 -0.570019 -0.580981 -0.580981 -0.570019 -0.580981 1 0 0 
-0.0188612 -0.0188612 -0.999644 -0.0133404 -0.707044 -0.707044 -0.707044 -0.0133404 -0.707044 
-0.570019 -0.580981 -0.580981 -0.570019 -0.580981 -0.580981 1 0 0 
-0.580981 -0.570019 -0.580981 -0.580981 -0.570019 -0.580981 0.999822 0.0188646 0 
-0.57735 -0.57735 -0.57735 -0.57735 -0.57735 -0.57735 -0.57735 -0.57735 -0.57735 
0.580981 0.580981 -0.570019 0.580981 0.580981 -0.570019 -0.707107 0 -0.707107 
-0.580981 -0.570019 -0.580981 -0.707107 0 -0.707107 0.584681 0.57365 -0.57365 
0.580981 0.580981 -0.570019 -0.580981 0.570019 -0.580981 -0.580981 0.580981 -0.570019 
0.713809 0 -0.700341 -0.0188646 0.999822 0 0 1 0 
0 1 0 0 1 0 0 0.713809 -0.700341 
0 0.713809 -0.700341 -0.57365 0.584681 -0.57365 -0.580981 0.570019 -0.580981 
-0.580981 0.570019 -0.580981 1 0 0 -0.707044 0.0133404 -0.707044 
-0.707044 0.0133404 -0.707044 1 0 0 -0.707044 0.707044 -0.0133404 
-0.713809 0.700341 0 0.999822 0.0188646 0 -0.999815 0.0192272 0 
0.700341 0.713809 0 0.707107 0.707107 0 0 1 0 
-0.0133404 -0.707044 -0.707044 -0.0133404 -0.707044 -0.707044 -0.57735 -0.57735 -0.57735 
0 -0.707107 -0.707107 0 -0.707107 -0.707107 -0.570019 -0.580981 -0.580981 
0 -0.707107 -0.707107 0 -0.713809 -0.700341 0 -0.713809 -0.700341 
0.0134669 -0.713744 -0.700277 0.999822 -0.0188646 0 -0.57735 -0.57735 -0.57735 
-0.57735 -0.57735 -0.57735 -0.57735 -0.57735 -0.57735 1 0 0 
-0.57735 -0.57735 -0.57735 -0.57735 -0.57735 -0.57735 -0.57735 -0.57735 -0.57735 
1 0 0 -0.57735 -0.57735 -0.57735 -0.57735 -0.57735 -0.57735 
-0.57735 -0.57735 -0.57735 1 0 0 -0.707044 -0.0133404 -0.707044 
-0.57735 -0.57735 -0.57735 -0.707044 -0.707044 -0.0133404 1 0 0 
-0.0188612 -0.0188612 -0.999644 -0.707044 -0.707044 -0.0133404 -0.707044 -0.707044 -0.0133404 
-0.700341 0 -0.713809 0.580981 0.570019 -0.580981 0.999822 0 -0.0188646 
-0.0188612 -0.0188612 -0.999644 -0.707044 -0.707044 -0.0133404 -0.707044 -0.707044 -0.0133404 
0 -0.700341 -0.713809 -0.57365 -0.57365 -0.584681 0.57365 0.57365 -0.584681 
0.0188612 0.0188612 -0.999644 0.999644 0.0188612 -0.0188612 -0.0188612 -0.0188612 -0.999644 
-0.707044 -0.707044 -0.0133404 -0.707044 -0.707044 -0.0133404 -0.700341 0 -0.713809 
0.707044 0.0133404 -0.707044 0.57735 0.57735 -0.57735 0.57735 0.57735 -0.57735 
-0.0188612 -0.0188612 -0.999644 -0.707044 -0.707044 -0.0133404 -0.999644 -0.0188612 -0.0188612 
0 -0.700341 -0.713809 -0.57365 -0.57365 -0.584681 0.713809 0.700341 0 
0.707044 0.707044 -0.0133404 -0.707107 0 -0.707107 -0.999822 0 -0.0188646 
1 0 0 -0.580981 -0.570019 -0.580981 -0.713744 -0.700277 -0.0134669 
1 0 0 -0.57735 -0.57735 -0.57735 -0.707044 -0.707044 -0.0133404 
-0.707044 -0.707044 -0.0133404 0.580981 0.570019 -0.580981 0.999822 0 -0.0188646 
-0.707044 -0.0133404 -0.707044 -0.707044 -0.707044 -0.0133404 -0.999644 -0.0188612 -0.0188612 
0.57365 0.57365 -0.584681 0.0188612 0.0188612 -0.999644 0.999644 0.0188612 -0.0188612 
-0.0188612 0.0188612 -0.999644 -0.999644 0.0188612 -0.0188612 -0.570019 0.580981 -0.580981 
0.707044 0.0133404 -0.707044 0.57735 0.57735 -0.57735 0.57735 0.57735 -0.57735 
-0.0188612 0.999644 -0.0188612 0 0.999822 -0.0188646 0 1 0 
0 1 0 0 1 0 -0.57365 0.584681 -0.57365 
-0.0134669 0.700277 -0.713744 -0.580981 0.570019 -0.580981 0 0.700341 -0.713809 
-0.57365 0.57365 -0.584681 0.713809 0.700341 0 0.707044 0.707044 -0.0133404 
-0.0188612 0.0188612 -0.999644 -0.999644 0.0188612 -0.0188612 0 0.0188646 -0.999822 
-0.700277 0.0134669 -0.713744 1 0 0 -0.0188612 0.999644 -0.0188612 
0 0.999822 -0.0188646 0 0.999822 -0.0188646 -0.57365 0.584681 -0.57365 
-0.584681 0.57365 -0.57365 0.999822 0.0188646 0 -0.999815 0.0192272 0 
0.57365 0.584681 -0.57365 0.580981 0.580981 -0.570019 0 1 0 
0 -0.0188646 -0.999822 0 -0.707107 -0.707107 -0.700277 -0.0134669 -0.713744 
0.99963 -0.0192237 -0.0192237 0 0 -1 -0.57365 -0.57365 -0.584681 
0.700341 0 -0.713809 -0.0133404 -0.707044 -0.707044 -0.0133404 -0.707044 -0.707044 
-0.57735 -0.57735 -0.57735 0 -0.707107 -0.707107 0 -0.707107 -0.707107 
0 -0.707107 -0.707107 0 -0.707107 -0.707107 0 -0.707107 -0.707107 
0 -0.707107 -0.707107 0 -0.707107 -0.707107 -0.570019 -0.580981 -0.580981 
0.0134669 -0.700277 -0.713744 0.707107 0 -0.707107 -0.57735 -0.57735 -0.57735 
-0.57735 -0.57735 -0.57735 -0.57735 -0.57735 -0.57735 0.713809 0 -0.700341 
-0.57735 -0.57735 -0.57735 -0.57735 -0.57735 -0.57735 -0.57735 -0.57735 -0.57735 
0.713809 0 -0.700341 -0.57735 -0.57735 -0.57735 -0.57735 -0.57735 -0.57735 
-0.57735 -0.57735 -0.57735 0.713809 0 -0.700341 -0.57735 -0.57735 -0.57735 
-0.57735 -0.57735 -0.57735 -0.999644 -0.0188612 -0.0188612 0.713809 0 -0.700341 
-0.713809 -0.700341 0 0.713809 0 -0.700341 -0.707107 -0.707107 0 
-0.707107 -0.707107 0 0.713809 0 -0.700341 -0.707107 -0.707107 0 
-0.707107 -0.707107 0 0.713809 0 -0.700341 -0.707107 -0.707107 0 