# vtk DataFile Version 3.0
vtk output
ASCII
DATASET POLYDATA
POINTS 3158 float
73 96 69.013 73 95.013 70 72.013 96 70 
74 96 69.013 74 95.013 70 75 96 69.013 
75 95.013 70 76 96 69.013 76 95.013 70 
76.987 96 70 72 97 69.013 72 96.013 70 
71.013 97 70 73 97 69.013 74 97 69.013 
75 97 69.013 76 97 69.013 76.987 97 70 
69 98 69.013 69 97.013 70 68.013 98 70 
70 98 69.013 70 97.013 70 71 98 69.013 
71 97.013 70 72 98 69.013 73 98 69.013 
74 98 69.013 75 98 69.013 76 98 69.013 
77 97.013 70 77 98 69.013 78 98 69.013 
78 97.013 70 79 98 69.013 79 97.013 70 
80 98 69.013 80 97.013 70 80.987 98 70 
69 99 69.013 68.013 99 70 70 99 69.013 
71 99 69.013 72 99 69.013 73 99 69.013 
74 99 69.013 75 99 69.013 76 99 69.013 
77 99 69.013 78 99 69.013 79 99 69.013 
80 99 69.013 80.987 99 70 69 100 69.013 
68.013 100 70 70 100 69.013 71 100 69.013 
72 100 69.013 73 100 69.013 74 100 69.013 
75 100 69.013 76 100 69.013 77 100 69.013 
78 100 69.013 79 100 69.013 80 100 69.013 
81 99.013 70 81 100 69.013 82 100 69.013 
82 99.013 70 82.987 100 70 68 101 69.013 
68 100.013 70 67.013 101 70 69 101 69.013 
70 101 69.013 71 101 69.013 72 101 69.013 
73 101 69.013 74 101 69.013 75 101 69.013 
76 101 69.013 77 101 69.013 78 101 69.013 
79 101 69.013 80 101 69.013 81 101 69.013 
82 101 69.013 82.987 101 70 67 102 69.013 
67 101.013 70 66.013 102 70 68 102 69.013 
69 102 69.013 70 102 69.013 71 102 69.013 
72 102 69.013 73 102 69.013 74 102 69.013 
75 102 69.013 76 102 69.013 77 102 69.013 
78 102 69.013 79 102 69.013 80 102 69.013 
81 102 69.013 82 102 69.013 83 101.013 70 
83 102 69.013 84 102 69.013 84 101.013 70 
84.987 102 70 67 103 69.013 66.013 103 70 
68 103 69.013 69 103 69.013 70 103 69.013 
71 103 69.013 72 103 69.013 73 103 69.013 
74 103 69.013 75 103 69.013 76 103 69.013 
77 103 69.013 78 103 69.013 79 103 69.013 
80 103 69.013 81 103 69.013 82 103 69.013 
83 103 69.013 84 103 69.013 84.987 103 70 
67 104 69.013 66.013 104 70 68 104 69.013 
69 104 69.013 70 104 69.013 71 104 69.013 
72 104 69.013 73 104 69.013 74 104 69.013 
75 104 69.013 76 104 69.013 77 104 69.013 
78 104 69.013 79 104 69.013 80 104 69.013 
81 104 69.013 82 104 69.013 83 104 69.013 
84 104 69.013 85 103.013 70 85 104 69.013 
86 104 69.013 86 103.013 70 86.987 104 70 
67 105 69.013 66.013 105 70 68 105 69.013 
69 105 69.013 70 105 69.013 71 105 69.013 
72 105 69.013 73 105 69.013 74 105 69.013 
75 105 69.013 76 105 69.013 77 105 69.013 
78 105 69.013 79 105 69.013 80 105 69.013 
81 105 69.013 82 105 69.013 83 105 69.013 
84 105 69.013 85 105 69.013 86 105 69.013 
86.987 105 70 67 106 69.013 66.013 106 70 
68 106 69.013 69 106 69.013 70 106 69.013 
71 106 69.013 72 106 69.013 73 106 69.013 
74 106 69.013 75 106 69.013 76 106 69.013 
77 106 69.013 78 106 69.013 79 106 69.013 
80 106 69.013 81 106 69.013 82 106 69.013 
83 106 69.013 84 106 69.013 85 106 69.013 
86 106 69.013 86.987 106 70 67 107 69.013 
66.013 107 70 68 107 69.013 69 107 69.013 
70 107 69.013 71 107 69.013 72 107 69.013 
73 107 69.013 74 107 69.013 75 107 69.013 
76 107 69.013 77 107 69.013 78 107 69.013 
79 107 69.013 80 107 69.013 81 107 69.013 
82 107 69.013 83 107 69.013 84 107 69.013 
85 107 69.013 86 107 69.013 86.987 107 70 
67 108 69.013 66.013 108 70 68 108 69.013 
69 108 69.013 70 108 69.013 71 108 69.013 
72 108 69.013 73 108 69.013 74 108 69.013 
75 108 69.013 76 108 69.013 77 108 69.013 
78 108 69.013 79 108 69.013 80 108 69.013 
81 108 69.013 82 108 69.013 83 108 69.013 
84 108 69.013 85 108 69.013 86 108 69.013 
86.987 108 70 67 109 69.013 66.013 109 70 
68 109 69.013 69 109 69.013 70 109 69.013 
71 109 69.013 72 109 69.013 73 109 69.013 
74 109 69.013 75 109 69.013 76 109 69.013 
77 109 69.013 78 109 69.013 79 109 69.013 
80 109 69.013 81 109 69.013 82 109 69.013 
83 109 69.013 84 109 69.013 85 109 69.013 
86 109 69.013 86.987 109 70 67 109.987 70 
68 109.987 70 68.013 110 70 69 110 69.013 
70 110 69.013 71 110 69.013 72 110 69.013 
73 110 69.013 74 110 69.013 75 110 69.013 
76 110 69.013 77 110 69.013 78 110 69.013 
79 110 69.013 80 110 69.013 81 110 69.013 
82 110 69.013 83 110 69.013 84 110 69.013 
85 110 69.013 86 110 69.013 87 109.013 70 
87 110 69.013 88 110 69.013 88 109.013 70 
88.987 110 70 69 111 69.013 68.013 111 70 
70 111 69.013 71 111 69.013 72 111 69.013 
73 111 69.013 74 111 69.013 75 111 69.013 
76 111 69.013 77 111 69.013 78 111 69.013 
79 111 69.013 80 111 69.013 81 111 69.013 
82 111 69.013 83 111 69.013 84 111 69.013 
85 111 69.013 86 111 69.013 87 111 69.013 
88 111 69.013 88.987 111 70 69 112 69.013 
68.013 112 70 70 112 69.013 71 112 69.013 
72 112 69.013 73 112 69.013 74 112 69.013 
75 112 69.013 76 112 69.013 77 112 69.013 
78 112 69.013 79 112 69.013 80 112 69.013 
81 112 69.013 82 112 69.013 83 112 69.013 
84 112 69.013 85 112 69.013 86 112 69.013 
87 112 69.013 88 112 69.013 88.987 112 70 
69 113 69.013 68.013 113 70 70 113 69.013 
71 113 69.013 72 113 69.013 73 113 69.013 
74 113 69.013 75 113 69.013 76 113 69.013 
77 113 69.013 78 113 69.013 79 113 69.013 
80 113 69.013 81 113 69.013 82 113 69.013 
83 113 69.013 84 113 69.013 85 113 69.013 
86 113 69.013 87 113 69.013 88 113 69.013 
88.987 113 70 69 113.987 70 70 113.987 70 
70.013 114 70 71 114 69.013 72 114 69.013 
73 114 69.013 74 114 69.013 75 114 69.013 
76 114 69.013 77 114 69.013 78 114 69.013 
79 114 69.013 80 114 69.013 81 114 69.013 
82 114 69.013 83 114 69.013 84 114 69.013 
85 114 69.013 86 114 69.013 87 114 69.013 
88 114 69.013 88.987 114 70 71 115 69.013 
70.013 115 70 72 115 69.013 73 115 69.013 
74 115 69.013 75 115 69.013 76 115 69.013 
77 115 69.013 78 115 69.013 79 115 69.013 
80 115 69.013 81 115 69.013 82 115 69.013 
83 115 69.013 84 115 69.013 85 115 69.013 
86 115 69.013 87 115 69.013 87.987 115 70 
88 114.987 70 71 116 69.013 70.013 116 70 
72 116 69.013 73 116 69.013 74 116 69.013 
75 116 69.013 76 116 69.013 77 116 69.013 
78 116 69.013 79 116 69.013 80 116 69.013 
81 116 69.013 82 116 69.013 83 116 69.013 
84 116 69.013 85 116 69.013 86 116 69.013 
86.987 116 70 87 115.987 70 71 117 69.013 
70.013 117 70 72 117 69.013 73 117 69.013 
74 117 69.013 75 117 69.013 76 117 69.013 
77 117 69.013 78 117 69.013 79 117 69.013 
80 117 69.013 81 117 69.013 82 117 69.013 
83 117 69.013 84 117 69.013 85 117 69.013 
86 117 69.013 86.987 117 70 71 117.987 70 
72 117.987 70 72.013 118 70 73 118 69.013 
74 118 69.013 75 118 69.013 76 118 69.013 
77 118 69.013 78 118 69.013 79 118 69.013 
80 118 69.013 81 118 69.013 82 118 69.013 
83 118 69.013 84 118 69.013 85 118 69.013 
86 118 69.013 86.987 118 70 73 119 69.013 
72.013 119 70 74 119 69.013 75 119 69.013 
76 119 69.013 77 119 69.013 78 119 69.013 
79 119 69.013 80 119 69.013 81 119 69.013 
82 119 69.013 83 119 69.013 84 119 69.013 
85 119 69.013 85.987 119 70 86 118.987 70 
73 119.987 70 74 119.987 70 74.013 120 70 
75 120 69.013 76 120 69.013 77 120 69.013 
78 120 69.013 79 120 69.013 80 120 69.013 
81 120 69.013 82 120 69.013 83 120 69.013 
84 120 69.013 84.987 120 70 85 119.987 70 
75 121 69.013 74.013 121 70 76 121 69.013 
77 121 69.013 78 121 69.013 79 121 69.013 
80 121 69.013 81 121 69.013 82 121 69.013 
83 121 69.013 83.987 121 70 84 120.987 70 
75 121.987 70 76 121.987 70 77 121.987 70 
78 121.987 70 79 121.987 70 80 121.987 70 
81 121.987 70 82 121.987 70 83 121.987 70 
72 94 70.013 72 93.013 71 71.013 94 71 
72.987 94 71 71 95 70.013 71 94.013 71 
70.013 95 71 72 95 70.013 73 94.013 71 
73 95 70.013 74 95 70.013 74 94.013 71 
75 95 70.013 75 94.013 71 76 95 70.013 
76 94.013 71 76.987 95 71 71 95.987 71 
71.013 96 71 72 96 70.013 76.987 96 71 
69 97 70.013 69 96.013 71 68.013 97 71 
70 97 70.013 70 96.013 71 71 97 70.013 
71 96.013 71 77 96.013 71 77 97 70.013 
78 97 70.013 78 96.013 71 79 97 70.013 
79 96.013 71 80 97 70.013 80 96.013 71 
80.987 97 71 68.013 98 71 80.987 98 71 
68 99 70.013 68 98.013 71 67.013 99 71 
81 98.013 71 81 99 70.013 82 99 70.013 
82 98.013 71 82.987 99 71 68 100 70.013 
67.013 100 71 82.987 100 71 67 101 70.013 
67 100.013 71 66.013 101 71 83 100.013 71 
83 101 70.013 84 101 70.013 84 100.013 71 
84.987 101 71 66.013 102 71 84.987 102 71 
66.013 103 71 85 102.013 71 85 103 70.013 
85.987 103 71 66.013 104 71 86 103.013 71 
86.987 104 71 66.013 105 71 86.987 105 71 
66.013 106 71 86.987 106 71 66.013 107 71 
86.987 107 71 66.013 108 71 86.987 108 71 
66.013 109 71 87 108.013 71 87 109 70.013 
87.987 109 71 67 109.987 71 68 109.987 71 
68.013 110 71 88 109.013 71 88.987 110 71 
68.013 111 71 88.987 111 71 68.013 112 71 
88.987 112 71 68.013 113 71 88.987 113 71 
69 113.987 71 70 113.987 71 70.013 114 71 
88.987 114 71 70.013 115 71 87.987 115 71 
88 114.987 71 70.013 116 71 86.987 116 71 
87 115.987 71 70.013 117 71 86.987 117 71 
71 117.987 71 72 118 70.013 71.013 118 71 
86.987 118 71 72 118.987 71 72.013 119 71 
85.987 119 71 86 118.987 71 73 119.987 71 
74 119.987 71 74.013 120 71 84.987 120 71 
85 119.987 71 74.013 121 71 83.987 121 71 
84 120.987 71 75 121.987 71 76 121.987 71 
77 121.987 71 78 121.987 71 79 121.987 71 
80 121.987 71 81 121.987 71 82 121.987 71 
83 121.987 71 72 93 71.013 72 92.013 72 
71.013 93 72 72.987 93 72 71 94 71.013 
71 93.013 72 70.013 94 72 73 94 71.013 
73 93.013 72 74 94 71.013 74 93.013 72 
75 94 71.013 75 93.013 72 76 94 71.013 
76 93.013 72 77 94 71.013 77 93.013 72 
78 94 71.013 78 93.013 72 78.987 94 72 
70 95 71.013 70 94.013 72 69.013 95 72 
77 95 71.013 78 95 71.013 78.987 95 72 
69 96 71.013 69 95.013 72 68.013 96 72 
70 96 71.013 71 96 71.013 77 96 71.013 
78 96 71.013 79 95.013 72 79 96 71.013 
80 96 71.013 80 95.013 72 81 96 71.013 
81 95.013 72 82 96 71.013 82 95.013 72 
82.987 96 72 68.013 97 72 81 97 71.013 
82 97 71.013 82.987 97 72 68.013 98 72 
81 98 71.013 82 98 71.013 83 97.013 72 
83 98 71.013 84 98 71.013 84 97.013 72 
84.987 98 72 68 98.013 72 67.013 99 72 
83 99 71.013 84 99 71.013 84.987 99 72 
67 100 71.013 67 99.013 72 66.013 100 72 
83 100 71.013 84 100 71.013 85 99.013 72 
85 100 71.013 86 100 71.013 86 99.013 72 
[...]
POINT_DATA 3158
SCALARS scalars float
LOOKUP_TABLE default
1 1 1 1 1 1 1 1 1 
1 1 1 1 1 1 1 1 1 
1 1 1 1 1 1 1 1 1 
1 1 1 1 1 1 1 1 1 
1 1 1 1 1 1 1 1 1 
1 1 1 1 1 1 1 1 1 
1 1 1 1 1 1 1 1 1 
1 1 1 1 1 1 1 1 1 
1 1 1 1 1 1 1 1 1 
1 1 1 1 1 1 1 1 1 
1 1 1 1 1 1 1 1 1 
1 1 1 1 1 1 1 1 1 
1 1 1 1 1 1 1 1 1 
1 1 1 1 1 1 1 1 1 
1 1 1 1 1 1 1 1 1 
1 1 1 1 1 1 1 1 1 
1 1 1 1 1 1 1 1 1 
1 1 1 1 1 1 1 1 1 
1 1 1 1 1 1 1 1 1 
1 1 1 1 1 1 1 1 1 
1 1 1 1 1 1 1 1 1 
1 1 1 1 1 1 1 1 1 
1 1 1 1 1 1 1 1 1 
1 1 1 1 1 1 1 1 1 
1 1 1 1 1 1 1 1 1 
1 1 1 1 1 1 1 1 1 
1 1 1 1 1 1 1 1 1 
1 1 1 1 1 1 1 1 1 
1 1 1 1 1 1 1 1 1 
1 1 1 1 1 1 1 1 1 
1 1 1 1 1 1 1 1 1 
1 1 1 1 1 1 1 1 1 
1 1 1 1 1 1 1 1 1 
1 1 1 1 1 1 1 1 1 
1 1 1 1 1 1 1 1 1 
1 1 1 1 1 1 1 1 1 
1 1 1 1 1 1 1 1 1 
1 1 1 1 1 1 1 1 1 
1 1 1 1 1 1 1 1 1 
1 1 1 1 1 1 1 1 1 
1 1 1 1 1 1 1 1 1 
1 1 1 1 1 1 1 1 1 
1 1 1 1 1 1 1 1 1 
1 1 1 1 1 1 1 1 1 
1 1 1 1 1 1 1 1 1 
1 1 1 1 1 1 1 1 1 
1 1 1 1 1 1 1 1 1 
1 1 1 1 1 1 1 1 1 
1 1 1 1 1 1 1 1 1 
1 1 1 1 1 1 1 1 1 
1 1 1 1 1 1 1 1 1 
1 1 1 1 1 1 1 1 1 
1 1 1 1 1 1 1 1 1 
1 1 1 1 1 1 1 1 1 
1 1 1 1 1 1 1 1 1 
1 1 1 1 1 1 1 1 1 
1 1 1 1 1 1 1 1 1 
1 1 1 1 1 1 1 1 1 
1 1 1 1 1 1 1 1 1 
1 1 1 1 1 1 1 1 1 
1 1 1 1 1 1 1 1 1 
1 1 1 1 1 1 1 1 1 
1 1 1 1 1 1 1 1 1 
1 1 1 1 1 1 1 1 1 
1 1 1 1 1 1 1 1 1 
1 1 1 1 1 1 1 1 1 
1 1 1 1 1 1 1 1 1 
1 1 1 1 1 1 1 1 1 
1 1 1 1 1 1 1 1 1 
1 1 1 1 1 1 1 1 1 
1 1 1 1 1 1 1 1 1 
1 1 1 1 1 1 1 1 1 
1 1 1 1 1 1 1 1 1 
1 1 1 1 1 1 1 1 1 
1 1 1 1 1 1 1 1 1 
1 1 1 1 1 1 1 1 1 
1 1 1 1 1 1 1 1 1 
1 1 1 1 1 1 1 1 1 
1 1 1 1 1 1 1 1 1 
1 1 1 1 1 1 1 1 1 
1 1 1 1 1 1 1 1 1 
1 1 1 1 1 1 1 1 1 
1 1 1 1 1 1 1 1 1 
1 1 1 1 1 1 1 1 1 
1 1 1 1 1 1 1 1 1 
1 1 1 1 1 1 1 1 1 
1 1 1 1 1 1 1 1 1 
1 1 1 1 1 1 1 1 1 
1 1 1 1 1 1 1 1 1 
1 1 1 1 1 1 1 1 1 
1 1 1 1 1 1 1 1 1 
1 1 1 1 1 1 1 1 1 
1 1 1 1 1 1 1 1 1 
1 1 1 1 1 1 1 1 1 
1 1 1 1 1 1 1 1 1 
1 1 1 1 1 1 1 1 1 
1 1 1 1 1 1 1 1 1 
1 1 1 1 1 1 1 1 1 
1 1 1 1 1 1 1 1 1 
1 1 1 1 1 1 1 1 1 
1 1 1 1 1 1 1 1 1 
1 1 1 1 1 1 1 1 1 
1 1 1 1 1 1 1 1 1 
1 1 1 1 1 1 1 1 1 
1 1 1 1 1 1 1 1 1 
1 1 1 1 1 1 1 1 1 
1 1 1 1 1 1 1 1 1 
1 1 1 1 1 1 1 1 1 
1 1 1 1 1 1 1 1 1 
1 1 1 1 1 1 1 1 1 
1 1 1 1 1 1 1 1 1 
1 1 1 1 1 1 1 1 1 
1 1 1 1 1 1 1 1 1 
1 1 1 1 1 1 1 1 1 
1 1 1 1 1 1 1 1 1 
1 1 1 1 1 1 1 1 1 
1 1 1 1 1 1 1 1 1 
1 1 1 1 1 1 1 1 1 
1 1 1 1 1 1 1 1 1 
1 1 1 1 1 1 1 1 1 
1 1 1 1 1 1 1 1 1 
1 1 1 1 1 1 1 1 1 
1 1 1 1 1 1 1 1 1 
1 1 1 1 1 1 1 1 1 
1 1 1 1 1 1 1 1 1 
1 1 1 1 1 1 1 1 1 
1 1 1 1 1 1 1 1 1 
1 1 1 1 1 1 1 1 1 
1 1 1 1 1 1 1 1 1 
1 1 1 1 1 1 1 1 1 
1 1 1 1 1 1 1 1 1 
1 1 1 1 1 1 1 1 1 
1 1 1 1 1 1 1 1 1 
1 1 1 1 1 1 1 1 1 
1 1 1 1 1 1 1 1 1 
1 1 1 1 1 1 1 1 1 
1 1 1 1 1 1 1 1 1 
1 1 1 1 1 1 1 1 1 
1 1 1 1 1 1 1 1 1 
1 1 1 1 1 1 1 1 1 
1 1 1 1 1 1 1 1 1 
1 1 1 1 1 1 1 1 1 
1 1 1 1 1 1 1 1 1 
1 1 1 1 1 1 1 1 1 
1 1 1 1 1 1 1 1 1 
1 1 1 1 1 1 1 1 1 
1 1 1 1 1 1 1 1 1 
1 1 1 1 1 1 1 1 1 
1 1 1 1 1 1 1 1 1 
1 1 1 1 1 1 1 1 1 
1 1 1 1 1 1 1 1 1 
1 1 1 1 1 1 1 1 1 
1 1 1 1 1 1 1 1 1 
1 1 1 1 1 1 1 1 1 
1 1 1 1 1 1 1 1 1 
1 1 1 1 1 1 1 1 1 
1 1 1 1 1 1 1 1 1 
1 1 1 1 1 1 1 1 1 
1 1 1 1 1 1 1 1 1 
1 1 1 1 1 1 1 1 1 
1 1 1 1 1 1 1 1 1 
1 1 1 1 1 1 1 1 1 
1 1 1 1 1 1 1 1 1 
1 1 1 1 1 1 1 1 1 
1 1 1 1 1 1 1 1 1 
1 1 1 1 1 1 1 1 1 
1 1 1 1 1 1 1 1 1 
1 1 1 1 1 1 1 1 1 
1 1 1 1 1 1 1 1 1 
1 1 1 1 1 1 1 1 1 
1 1 1 1 1 1 1 1 1 
1 1 1 1 1 1 1 1 1 
1 1 1 1 1 1 1 1 1 
1 1 1 1 1 1 1 1 1 
1 1 1 1 1 1 1 1 1 
1 1 1 1 1 1 1 1 1 
1 1 1 1 1 1 1 1 1 
1 1 1 1 1 1 1 1 1 
1 1 1 1 1 1 1 1 1 
1 1 1 1 1 1 1 1 1 
1 1 1 1 1 1 1 1 1 
1 1 1 1 1 1 1 1 1 
1 1 1 1 1 1 1 1 1 
1 1 1 1 1 1 1 1 1 
1 1 1 1 1 1 1 1 1 
1 1 1 1 1 1 1 1 1 
1 1 1 1 1 1 1 1 1 
1 1 1 1 1 1 1 1 1 
1 1 1 1 1 1 1 1 1 
1 1 1 1 1 1 1 1 1 
1 1 1 1 1 1 1 1 1 
1 1 1 1 1 1 1 1 1 
1 1 1 1 1 1 1 1 1 
1 1 1 1 1 1 1 1 1 
1 1 1 1 1 1 1 1 1 
1 1 1 1 1 1 1 1 1 
1 1 1 1 1 1 1 1 1 
1 1 1 1 1 1 1 1 1 
1 1 1 1 1 1 1 1 1 
1 1 1 1 1 1 1 1 1 
1 1 1 1 1 1 1 1 1 
1 1 1 1 1 1 1 1 1 
1 1 1 1 1 1 1 1 1 
1 1 1 1 1 1 1 1 1 
1 1 1 1 1 1 1 1 1 
1 1 1 1 1 1 1 1 1 
1 1 1 1 1 1 1 1 1 
1 1 1 1 1 1 1 1 1 
1 1 1 1 1 1 1 1 1 
1 1 1 1 1 1 1 1 1 
1 1 1 1 1 1 1 1 1 
1 1 1 1 1 1 1 1 1 
1 1 1 1 1 1 1 1 1 
1 1 1 1 1 1 1 1 1 
1 1 1 1 1 1 1 1 1 
1 1 1 1 1 1 1 1 1 
1 1 1 1 1 1 1 1 1 
1 1 1 1 1 1 1 1 1 
1 1 1 1 1 1 1 1 1 
1 1 1 1 1 1 1 1 1 
1 1 1 1 1 1 1 1 1 
1 1 1 1 1 1 1 1 1 
1 1 1 1 1 1 1 1 1 
1 1 1 1 1 1 1 1 1 
1 1 1 1 1 1 1 1 1 
1 1 1 1 1 1 1 1 1 
1 1 1 1 1 1 1 1 1 
1 1 1 1 1 1 1 1 1 
1 1 1 1 1 1 1 1 1 
1 1 1 1 1 1 1 1 1 
1 1 1 1 1 1 1 1 1 
1 1 1 1 1 1 1 1 1 
1 1 1 1 1 1 1 1 1 
1 1 1 1 1 1 1 1 1 
1 1 1 1 1 1 1 1 1 
1 1 1 1 1 1 1 1 1 
1 1 1 1 1 1 1 1 1 
1 1 1 1 1 1 1 1 1 
1 1 1 1 1 1 1 1 1 
1 1 1 1 1 1 1 1 1 
1 1 1 1 1 1 1 1 1 
1 1 1 1 1 1 1 1 1 
1 1 1 1 1 1 1 1 1 
1 1 1 1 1 1 1 1 1 
1 1 1 1 1 1 1 1 1 
1 1 1 1 1 1 1 1 1 
1 1 1 1 1 1 1 1 1 
1 1 1 1 1 1 1 1 1 
1 1 1 1 1 1 1 1 1 
1 1 1 1 1 1 1 1 1 
1 1 1 1 1 1 1 1 1 
1 1 1 1 1 1 1 1 1 
1 1 1 1 1 1 1 1 1 
1 1 1 1 1 1 1 1 1 
1 1 1 1 1 1 1 1 1 
1 1 1 1 1 1 1 1 1 
1 1 1 1 1 1 1 1 1 
1 1 1 1 1 1 1 1 1 
1 1 1 1 1 1 1 1 1 
1 1 1 1 1 1 1 1 1 
1 1 1 1 1 1 1 1 1 
1 1 1 1 1 1 1 1 1 
1 1 1 1 1 1 1 1 1 
1 1 1 1 1 1 1 1 1 
1 1 1 1 1 1 1 1 1 
1 1 1 1 1 1 1 1 1 
1 1 1 1 1 1 1 1 1 
1 1 1 1 1 1 1 1 1 
1 1 1 1 1 1 1 1 1 
1 1 1 1 1 1 1 1 1 
1 1 1 1 1 1 1 1 1 
1 1 1 1 1 1 1 1 1 
1 1 1 1 1 1 1 1 1 
1 1 1 1 1 1 1 1 1 
1 1 1 1 1 1 1 1 1 
1 1 1 1 1 1 1 1 1 
1 1 1 1 1 1 1 1 1 
1 1 1 1 1 1 1 1 1 
1 1 1 1 1 1 1 1 1 
1 1 1 1 1 1 1 1 1 
1 1 1 1 1 1 1 1 1 
1 1 1 1 1 1 1 1 1 
1 1 1 1 1 1 1 1 1 
1 1 1 1 1 1 1 1 1 
1 1 1 1 1 1 1 1 1 
1 1 1 1 1 1 1 1 1 
1 1 1 1 1 1 1 1 1 
1 1 1 1 1 1 1 1 1 
1 1 1 1 1 1 1 1 1 
1 1 1 1 1 1 1 1 1 
1 1 1 1 1 1 1 1 1 
1 1 1 1 1 1 1 1 1 
1 1 1 1 1 1 1 1 1 
1 1 1 1 1 1 1 1 1 
1 1 1 1 1 1 1 1 1 
1 1 1 1 1 1 1 1 1 
1 1 1 1 1 1 1 1 1 
1 1 1 1 1 1 1 1 1 
1 1 1 1 1 1 1 1 1 
1 1 1 1 1 1 1 1 1 
1 1 1 1 1 1 1 1 1 
1 1 1 1 1 1 1 1 1 
1 1 1 1 1 1 1 1 1 
1 1 1 1 1 1 1 1 1 
1 1 1 1 1 1 1 1 1 
1 1 1 1 1 1 1 1 1 
1 1 1 1 1 1 1 1 1 
1 1 1 1 1 1 1 1 1 
1 1 1 1 1 1 1 1 1 
1 1 1 1 1 1 1 1 1 
1 1 1 1 1 1 1 1 1 
1 1 1 1 1 1 1 1 1 
1 1 1 1 1 1 1 1 1 
1 1 1 1 1 1 1 1 1 
1 1 1 1 1 1 1 1 1 
1 1 1 1 1 1 1 1 1 
1 1 1 1 1 1 1 1 1 
1 1 1 1 1 1 1 1 1 
1 1 1 1 1 1 1 1 1 
1 1 1 1 1 1 1 1 1 
1 1 1 1 1 1 1 1 1 
1 1 1 1 1 1 1 1 1 
1 1 1 1 1 1 1 1 1 
1 1 1 1 1 1 1 1 1 
1 1 1 1 1 1 1 1 1 
1 1 1 1 1 1 1 1 1 
1 1 1 1 1 1 1 1 1 
1 1 1 1 1 1 1 1 1 
1 1 1 1 1 1 1 1 1 
1 1 1 1 1 1 1 1 1 
1 1 1 1 1 1 1 1 1 
1 1 1 1 1 1 1 1 1 
1 1 1 1 1 1 1 1 1 
1 1 1 1 1 1 1 1 1 
1 1 1 1 1 1 1 1 1 
1 1 1 1 1 1 1 1 1 
1 1 1 1 1 1 1 1 1 
1 1 1 1 1 1 1 1 1 
1 1 1 1 1 1 1 1 1 
1 1 1 1 1 1 1 1 1 
1 1 1 1 1 1 1 1 1 
1 1 1 1 1 1 1 1 1 
1 1 1 1 1 1 1 1 1 
1 1 1 1 1 1 1 1 1 
1 1 1 1 1 1 1 1 1 
1 1 1 1 1 1 1 1 1 
1 1 1 1 1 1 1 1 1 
1 1 1 1 1 1 1 1 1 
1 1 1 1 1 1 1 1 1 
1 1 1 1 1 1 1 1 1 
1 1 1 1 1 1 1 1 
NORMALS normals float
-0.0129848 -0.0129848 -0.999831 -0.00918282 -0.707077 -0.707077 -0.57735 -0.57735 -0.57735 
0 -0.0129859 -0.999916 0 -0.707107 -0.707107 0 -0.0129859 -0.999916 
0 -0.707107 -0.707107 0.0129848 -0.0129848 -0.999831 0.00918282 -0.707077 -0.707077 
0.999831 -0.0129848 -0.0129848 -0.0129848 -0.0129848 -0.999831 -0.57735 -0.57735 -0.57735 
-0.57735 -0.57735 -0.57735 0 0 -1 0 0 -1 
0 0 -1 0.0129859 0 -0.999916 0.57985 -0.572319 -0.57985 
-0.0129848 -0.0129848 -0.999831 -0.00918282 -0.707077 -0.707077 -0.999831 -0.0129848 -0.0129848 
0 -0.0129859 -0.999916 0 -0.707107 -0.707107 0 -0.0129859 -0.999916 
-0.572319 -0.57985 -0.57985 0 0 -1 0 0 -1 
0 0 -1 0 0 -1 0 0 -1 
0.572319 -0.57985 -0.57985 0 -0.0129859 -0.999916 0 -0.0129859 -0.999916 
0 -0.707107 -0.707107 0 -0.0129859 -0.999916 0 -0.707107 -0.707107 
0.0129848 -0.0129848 -0.999831 0.00918282 -0.707077 -0.707077 0.999831 -0.0129848 -0.0129848 
-0.0129859 0 -0.999916 -0.707107 0 -0.707107 0 0 -1 
0 0 -1 0 0 -1 0 0 -1 
0 0 -1 0 0 -1 0 0 -1 
0 0 -1 0 0 -1 0 0 -1 
0.0129859 0 -0.999916 0.57985 -0.572319 -0.57985 -0.0129859 0 -0.999916 
-0.57985 -0.572319 -0.57985 0 0 -1 0 0 -1 
0 0 -1 0 0 -1 0 0 -1 
0 0 -1 0 0 -1 0 0 -1 
0 0 -1 0 0 -1 0 0 -1 
0.572319 -0.57985 -0.57985 0 -0.0129859 -0.999916 0.0129848 -0.0129848 -0.999831 
0.00918282 -0.707077 -0.707077 0.999831 -0.0129848 -0.0129848 -0.0129848 -0.0129848 -0.999831 
-0.57735 -0.57735 -0.57735 -0.57735 -0.57735 -0.57735 0 0 -1 
0 0 -1 0 0 -1 0 0 -1 
0 0 -1 0 0 -1 0 0 -1 
0 0 -1 0 0 -1 0 0 -1 
0 0 -1 0 0 -1 0 0 -1 
0.0129859 0 -0.999916 0.57985 -0.572319 -0.57985 -0.0129848 -0.0129848 -0.999831 
-0.57735 -0.57735 -0.57735 -0.999831 -0.0129848 -0.0129848 0 0 -1 
0 0 -1 0 0 -1 0 0 -1 
0 0 -1 0 0 -1 0 0 -1 
0 0 -1 0 0 -1 0 0 -1 
0 0 -1 0 0 -1 0 0 -1 
0 0 -1 0 0 -1 0.572319 -0.57985 -0.57985 
0 -0.0129859 -0.999916 0.0129848 -0.0129848 -0.999831 0.00918282 -0.707077 -0.707077 
0.999831 -0.0129848 -0.0129848 -0.0129859 0 -0.999916 -0.999916 0 -0.0129859 
0 0 -1 0 0 -1 0 0 -1 
0 0 -1 0 0 -1 0 0 -1 
0 0 -1 0 0 -1 0 0 -1 
0 0 -1 0 0 -1 0 0 -1 
0 0 -1 0 0 -1 0 0 -1 
0 0 -1 0.0129859 0 -0.999916 0.57985 -0.572319 -0.57985 
-0.0129859 0 -0.999916 -0.999916 0 -0.0129859 0 0 -1 
0 0 -1 0 0 -1 0 0 -1 
0 0 -1 0 0 -1 0 0 -1 
0 0 -1 0 0 -1 0 0 -1 
0 0 -1 0 0 -1 0 0 -1 
0 0 -1 0 0 -1 0 0 -1 
0 0 -1 0.572319 -0.57985 -0.57985 0 -0.0129859 -0.999916 
0.0129848 -0.0129848 -0.999831 0.0129848 -0.999831 -0.0129848 0.999831 -0.0129848 -0.0129848 
-0.0129859 0 -0.999916 -0.999916 0 -0.0129859 0 0 -1 
0 0 -1 0 0 -1 0 0 -1 
0 0 -1 0 0 -1 0 0 -1 
0 0 -1 0 0 -1 0 0 -1 
0 0 -1 0 0 -1 0 0 -1 
0 0 -1 0 0 -1 0 0 -1 
0 0 -1 0 0 -1 0.0129859 0 -0.999916 
0.999916 0 -0.0129859 -0.0129859 0 -0.999916 -0.999916 0 -0.0129859 
0 0 -1 0 0 -1 0 0 -1 
0 0 -1 0 0 -1 0 0 -1 
0 0 -1 0 0 -1 0 0 -1 
0 0 -1 0 0 -1 0 0 -1 
0 0 -1 0 0 -1 0 0 -1 
0 0 -1 0 0 -1 0 0 -1 
0.0129859 0 -0.999916 0.999916 0 -0.0129859 -0.0129859 0 -0.999916 
-0.999916 0 -0.0129859 0 0 -1 0 0 -1 
0 0 -1 0 0 -1 0 0 -1 
0 0 -1 0 0 -1 0 0 -1 
0 0 -1 0 0 -1 0 0 -1 
0 0 -1 0 0 -1 0 0 -1 
0 0 -1 0 0 -1 0 0 -1 
0 0 -1 0.0129859 0 -0.999916 0.999916 0 -0.0129859 
-0.0129859 0 -0.999916 -0.999916 0 -0.0129859 0 0 -1 
0 0 -1 0 0 -1 0 0 -1 
0 0 -1 0 0 -1 0 0 -1 
0 0 -1 0 0 -1 0 0 -1 
0 0 -1 0 0 -1 0 0 -1 
0 0 -1 0 0 -1 0 0 -1 
0 0 -1 0 0 -1 0.0129859 0 -0.999916 
0.999916 0 -0.0129859 -0.0129848 0.0129848 -0.999831 -0.999831 0.0129848 -0.0129848 
0 0.0129859 -0.999916 0 0 -1 0 0 -1 
0 0 -1 0 0 -1 0 0 -1 
0 0 -1 0 0 -1 0 0 -1 
0 0 -1 0 0 -1 0 0 -1 
0 0 -1 0 0 -1 0 0 -1 
0 0 -1 0 0 -1 0 0 -1 
0.0129859 0 -0.999916 0.57985 -0.572319 -0.57985 -0.0129848 0.999831 -0.0129848 
-0.70244 0.711683 -0.00924263 -0.711683 0.70244 -0.00924263 -0.0129859 0 -0.999916 
0 0 -1 0 0 -1 0 0 -1 
0 0 -1 0 0 -1 0 0 -1 
0 0 -1 0 0 -1 0 0 -1 
0 0 -1 0 0 -1 0 0 -1 
0 0 -1 0 0 -1 0 0 -1 
0 0 -1 0 0 -1 0.572319 -0.57985 -0.57985 
0 -0.0129859 -0.999916 0.0129848 -0.0129848 -0.999831 0.0129848 -0.999831 -0.0129848 
0.999831 -0.0129848 -0.0129848 -0.0129859 0 -0.999916 -0.999916 0 -0.0129859 
0 0 -1 0 0 -1 0 0 -1 
0 0 -1 0 0 -1 0 0 -1 
0 0 -1 0 0 -1 0 0 -1 
0 0 -1 0 0 -1 0 0 -1 
0 0 -1 0 0 -1 0 0 -1 
0 0 -1 0 0 -1 0 0 -1 
0.0129859 0 -0.999916 0.999916 0 -0.0129859 -0.0129859 0 -0.999916 
-0.999916 0 -0.0129859 0 0 -1 0 0 -1 
0 0 -1 0 0 -1 0 0 -1 
0 0 -1 0 0 -1 0 0 -1 
0 0 -1 0 0 -1 0 0 -1 
0 0 -1 0 0 -1 0 0 -1 
0 0 -1 0 0 -1 0 0 -1 
0 0 -1 0.0129859 0 -0.999916 0.999916 0 -0.0129859 
-0.0129848 0.0129848 -0.999831 -0.999831 0.0129848 -0.0129848 0 0.0129859 -0.999916 
0 0 -1 0 0 -1 0 0 -1 
0 0 -1 0 0 -1 0 0 -1 
0 0 -1 0 0 -1 0 0 -1 
0 0 -1 0 0 -1 0 0 -1 
0 0 -1 0 0 -1 0 0 -1 
0 0 -1 0 0 -1 0.0129859 0 -0.999916 
0.999916 0 -0.0129859 -0.0129848 0.999831 -0.0129848 -0.70244 0.711683 -0.00924263 
-0.711683 0.70244 -0.00924263 -0.0129859 0 -0.999916 0 0 -1 
0 0 -1 0 0 -1 0 0 -1 
0 0 -1 0 0 -1 0 0 -1 
0 0 -1 0 0 -1 0 0 -1 
0 0 -1 0 0 -1 0 0 -1 
0 0 -1 0 0 -1 0 0 -1 
0.0129848 0.0129848 -0.999831 0.999831 0.0129848 -0.0129848 -0.0129859 0 -0.999916 
-0.999916 0 -0.0129859 0 0 -1 0 0 -1 
0 0 -1 0 0 -1 0 0 -1 
0 0 -1 0 0 -1 0 0 -1 
0 0 -1 0 0 -1 0 0 -1 
0 0 -1 0 0 -1 0 0 -1 
0 0 -1 0.0129848 0.0129848 -0.999831 0.707077 0.707077 -0.00918282 
0.707077 0.707077 -0.00918282 -0.0129859 0 -0.999916 -0.999916 0 -0.0129859 
0 0 -1 0 0 -1 0 0 -1 
0 0 -1 0 0 -1 0 0 -1 
0 0 -1 0 0 -1 0 0 -1 
0 0 -1 0 0 -1 0 0 -1 
0 0 -1 0 0 -1 0.0129859 0 -0.999916 
0.711683 0.70244 -0.00924263 0.707077 0.707077 -0.00918282 -0.0129848 0.0129848 -0.999831 
-0.999831 0.0129848 -0.0129848 0 0.0129859 -0.999916 0 0 -1 
0 0 -1 0 0 -1 0 0 -1 
0 0 -1 0 0 -1 0 0 -1 
0 0 -1 0 0 -1 0 0 -1 
0 0 -1 0 0 -1 0 0 -1 
0.0129859 0 -0.999916 0.999916 0 -0.0129859 -0.0129848 0.999831 -0.0129848 
-0.572319 0.57985 -0.57985 -0.57985 0.572319 -0.57985 -0.0129859 0 -0.999916 
0 0 -1 0 0 -1 0 0 -1 
0 0 -1 0 0 -1 0 0 -1 
0 0 -1 0 0 -1 0 0 -1 
0 0 -1 0 0 -1 0 0 -1 
0.0129848 0.0129848 -0.999831 0.999831 0.0129848 -0.0129848 -0.0129848 0.0129848 -0.999831 
-0.999831 0.0129848 -0.0129848 0 0.0129859 -0.999916 0 0 -1 
0 0 -1 0 0 -1 0 0 -1 
0 0 -1 0 0 -1 0 0 -1 
0 0 -1 0 0 -1 0 0 -1 
0.0129848 0.0129848 -0.999831 0.707077 0.707077 -0.00918282 0.707077 0.707077 -0.00918282 
-0.0129848 0.999831 -0.0129848 -0.70244 0.711683 -0.00924263 -0.711683 0.70244 -0.00924263 
-0.0129859 0 -0.999916 0 0 -1 0 0 -1 
0 0 -1 0 0 -1 0 0 -1 
0 0 -1 0 0 -1 0 0 -1 
0.0129848 0.0129848 -0.999831 0.707077 0.707077 -0.00918282 0.707077 0.707077 -0.00918282 
-0.0129848 0.0129848 -0.999831 -0.999831 0.0129848 -0.0129848 0 0.0129859 -0.999916 
0 0.0129859 -0.999916 0 0.0129859 -0.999916 0 0.0129859 -0.999916 
0 0.0129859 -0.999916 0 0.0129859 -0.999916 0 0.0129859 -0.999916 
0.0129848 0.0129848 -0.999831 0.707077 0.707077 -0.00918282 0.707077 0.707077 -0.00918282 
-0.0129848 0.999831 -0.0129848 0 0.999916 -0.0129859 0 0.999916 -0.0129859 
0 0.999916 -0.0129859 0 0.999916 -0.0129859 0 0.999916 -0.0129859 
0 0.999916 -0.0129859 0 0.999916 -0.0129859 0.0129848 0.999831 -0.0129848 
0 -0.0129859 -0.999916 0 -0.707107 -0.707107 -0.572319 -0.57985 -0.57985 
0.572319 -0.57985 -0.57985 -0.0129859 0 -0.999916 -0.57985 -0.572319 -0.57985 
-0.707107 0 -0.707107 0 0 -1 0.572319 -0.57985 -0.57985 
0 -0.707107 -0.707107 0 -0.707107 -0.707107 0 -0.707107 -0.707107 
0 -0.707107 -0.707107 0 -0.707107 -0.707107 0.00918282 -0.707077 -0.707077 
0.00918282 -0.707077 -0.707077 0.707077 -0.00918282 -0.707077 -0.707107 0 -0.707107 
-0.707107 0 -0.707107 -0.57985 -0.572319 -0.57985 0.582382 -0.574818 -0.574818 
-0.00918282 -0.707077 -0.707077 -0.00918282 -0.707077 -0.707077 -0.999831 -0.0129848 -0.0129848 
0 -0.707107 -0.707107 0 -0.707107 -0.707107 -0.572319 -0.57985 -0.57985 
-0.70244 -0.00924263 -0.711683 0.572319 -0.57985 -0.57985 0.572319 -0.57985 -0.57985 
0 -0.707107 -0.707107 0 -0.707107 -0.707107 0 -0.707107 -0.707107 
0 -0.707107 -0.707107 0.00918282 -0.707077 -0.707077 0.00918282 -0.707077 -0.707077 
0.707077 -0.00918282 -0.707077 -0.711713 -0.70247 0 0.582382 -0.574818 -0.574818 
-0.707077 -0.00918282 -0.707077 -0.707077 -0.707077 -0.00918282 -0.999831 -0.0129848 -0.0129848 
0.572319 -0.57985 -0.57985 0.572319 -0.57985 -0.57985 0.00918282 -0.707077 -0.707077 
0.00918282 -0.707077 -0.707077 0.707077 -0.00918282 -0.707077 -0.57985 -0.572319 -0.57985 
-0.57985 -0.572319 -0.57985 0.582382 -0.574818 -0.574818 -0.57735 -0.57735 -0.57735 
-0.57735 -0.57735 -0.57735 -0.999831 -0.0129848 -0.0129848 0.572319 -0.57985 -0.57985 
0.572319 -0.57985 -0.57985 0.00918282 -0.707077 -0.707077 0.00918282 -0.707077 -0.707077 
0.707077 -0.00918282 -0.707077 -1 0 0 0.582382 -0.574818 -0.574818 
-1 0 0 0.57735 -0.57735 -0.57735 0.57735 -0.57735 -0.57735 
0.57735 -0.57735 -0.57735 -1 0 0 0.57985 -0.57985 -0.572319 
0.999916 -0.0129859 0 -1 0 0 1 0 0 
-1 0 0 0.711713 0 -0.70247 -1 0 0 
0.711713 0 -0.70247 -1 0 0 0.582382 -0.574818 -0.574818 
-0.999916 0.0129859 0 0.57735 -0.57735 -0.57735 0.57735 -0.57735 -0.57735 
0.57735 -0.57735 -0.57735 -0.0129859 0.999916 0 -0.70247 0.711713 0 
-0.711713 0.70247 0 0.57985 -0.57985 -0.572319 0.999916 -0.0129859 0 
-1 0 0 1 0 0 -1 0 0 
1 0 0 -0.999916 0.0129859 0 1 0 0 
-0.0129859 0.999916 0 -0.70247 0.711713 0 -0.711713 0.70247 0 
0.999916 0.0129859 0 -1 0 0 0.707107 0.707107 0 
0.707107 0.707107 0 -1 0 0 0.711713 0.70247 0 
0.707107 0.707107 0 -0.999916 0.0129859 0 1 0 0 
-0.707107 0.707107 0 -0.57985 0.57985 -0.572319 -0.707107 0.707107 0 
0.999916 0.0129859 0 -0.707107 0.707107 0 -0.707107 0.707107 0 
0.707107 0.707107 0 0.707107 0.707107 0 -0.0129859 0.999916 0 
-0.70247 0.711713 0 -0.711713 0.70247 0 0.707107 0.707107 0 
0.707107 0.707107 0 -0.999916 0.0129859 0 0.707107 0.707107 0 
0.707107 0.707107 0 -0.0129859 0.999916 0 0 1 0 
0 1 0 0 1 0 0 1 0 
0 1 0 0 1 0 0 1 0 
0.0129859 0.999916 0 0 -0.707107 -0.707107 0 -0.999916 -0.0129859 
-0.572319 -0.57985 -0.57985 0.70244 -0.711683 -0.00924263 -0.57735 -0.57735 -0.57735 
-0.57735 -0.57735 -0.57735 -0.707077 -0.707077 -0.00918282 0.572319 -0.57985 -0.57985 
0.70244 -0.711683 -0.00924263 0 -0.707107 -0.707107 0 -0.707107 -0.707107 
0 -0.707107 -0.707107 0 -0.707107 -0.707107 0 -0.707107 -0.707107 
0 -0.707107 -0.707107 0 -0.0129859 -0.999916 0 -0.999916 -0.0129859 
0.0129848 -0.0129848 -0.999831 0.0129848 -0.999831 -0.0129848 0.999831 -0.0129848 -0.0129848 
-0.707077 -0.00918282 -0.707077 -0.707077 -0.707077 -0.00918282 -0.707077 -0.707077 -0.00918282 
0.70247 0 -0.711713 0.0129859 0 -0.999916 0.57985 -0.572319 -0.57985 
-0.00918282 -0.707077 -0.707077 -0.707077 -0.707077 -0.00918282 -0.999831 -0.0129848 -0.0129848 
0 -0.70247 -0.711713 -0.70247 0 -0.711713 0.574818 -0.574818 -0.582382 
0 -0.70247 -0.711713 0.572319 -0.57985 -0.57985 0 -0.707107 -0.707107 
0 -0.707107 -0.707107 0 -0.707107 -0.707107 0 -0.0129859 -0.999916 
0 -0.999916 -0.0129859 0.0129848 -0.0129848 -0.999831 0.0129848 -0.999831 -0.0129848 
0.999831 -0.0129848 -0.0129848 -1 0 0 0.70247 0 -0.711713 
0.0129859 0 -0.999916 0.711683 -0.70244 -0.00924263 -0.711713 -0.70247 0 
0.574818 -0.574818 -0.582382 0 -0.70247 -0.711713 0.70244 -0.711683 -0.00924263 
0 -0.0129859 -0.999916 0.0129848 -0.0129848 -0.999831 0.0129848 -0.999831 -0.0129848 
0.999831 -0.0129848 -0.0129848 -0.707107 -0.707107 0 -0.707107 -0.707107 0 
0.70247 0 -0.711713 0.0129859 0 -0.999916 0.711683 -0.70244 -0.00924263 
-0.57735 -0.57735 -0.57735 -0.707077 -0.707077 -0.00918282 -0.999831 -0.0129848 -0.0129848 
0.574818 -0.574818 -0.582382 0 -0.70247 -0.711713 0.70244 -0.711683 -0.00924263 
0 -0.0129859 -0.999916 0.0129848 -0.0129848 -0.999831 0.0129848 -0.999831 -0.0129848 
0.999831 -0.0129848 -0.0129848 -1 0 0 0.70247 0 -0.711713 
0.0129859 0 -0.999916 0.999916 0 -0.0129859 -1 0 0 
0.574818 -0.574818 -0.582382 0.0129859 0 -0.999916 0.999916 0 -0.0129859 
-1 0 0 0.57985 -0.572319 -0.57985 0.999916 0 -0.0129859 
-1 0 0 1 0 0 -1 0 0 
0.582382 -0.574818 -0.574818 -1 0 0 0.572319 -0.57985 -0.57985 
0.70244 -0.00924263 -0.711683 0.0129848 -0.0129848 -0.999831 0.0129848 -0.999831 -0.0129848 
0.999831 -0.0129848 -0.0129848 -1 0 0 0.70247 0 -0.711713 
0.0129859 0 -0.999916 0.999916 0 -0.0129859 -1 0 0 
0.574818 -0.574818 -0.582382 0.0129859 0 -0.999916 0.999916 0 -0.0129859 
-0.999831 0.0129848 0.0129848 0.57985 -0.572319 -0.57985 0.999916 0 -0.0129859 
-0.0129848 0.999831 0.0129848 -0.70247 0.711713 0 -0.711713 0.70247 0 
1 0 0 -1 0 0 1 0 0 
-1 0 0 1 0 0 -0.999916 0.0129859 0 
1 0 0 -0.0129859 0.999916 0 -0.70247 0.711713 0 
-0.711713 0.70247 0 0.999916 0.0129859 0 -1 0 0 
0.707107 0.707107 0 0.707107 0.707107 0 -1 0 0 
0.711713 0.70247 0 0.707107 0.707107 0 -0.999831 0.0129848 0.0129848 
1 0 0 -0.0129848 0.999831 0.0129848 -0.574818 0.582382 0.574818 
-0.57985 0.57985 0.572319 -0.582382 0.574818 0.574818 0.999916 0.0129859 0 
-0.999831 0.0129848 0.0129848 0.707107 0.707107 0 0.707107 0.707107 0 
-0.0129848 0.999831 0.0129848 -0.70247 0.711713 0 -0.711713 0.70247 0 
0.707107 0.707107 0 0.707107 0.707107 0 -0.999831 0.0129848 0.0129848 
0.707107 0.707107 0 0.707107 0.707107 0 -0.0129848 0.999831 0.0129848 
0 0.999916 0.0129859 0 0.999916 0.0129859 0 0.999916 0.0129859 
0 1 0 0 1 0 0 1 0 
0 1 0 0.0129859 0.999916 0 -0.57985 -0.57985 -0.572319 
-0.0129859 -0.999916 0 -0.999916 -0.0129859 0 0.0129848 -0.999831 0.0129848 