# vtk DataFile Version 3.0
vtk output
ASCII
DATASET POLYDATA
POINTS 1324 float
95 56 27.0088 95 55.0088 28 94.0088 56 28 
96 56 27.0088 96 55.0088 28 96.9912 56 28 
95 57 27.0088 94.0088 57 28 96 57 27.0088 
96.9912 57 28 87 58 27.0088 87 57.0088 28 
86.0088 58 28 88 58 27.0088 88 57.0088 28 
89 58 27.0088 89 57.0088 28 90 58 27.0088 
90 57.0088 28 90.9912 58 28 95 58 27.0088 
94.0088 58 28 96 58 27.0088 96.9912 58 28 
87 59 27.0088 86.0088 59 28 88 59 27.0088 
89 59 27.0088 90 59 27.0088 90.9912 59 28 
94 59 27.0088 94 58.0088 28 93.0088 59 28 
95 59 27.0088 96 59 27.0088 96.9912 59 28 
87 60 27.0088 86.0088 60 28 88 60 27.0088 
89 60 27.0088 90 60 27.0088 91 59.0088 28 
91 60 27.0088 92 60 27.0088 92 59.0088 28 
93 60 27.0088 93 59.0088 28 94 60 27.0088 
95 60 27.0088 96 60 27.0088 96.9912 60 28 
87 61 27.0088 86.0088 61 28 88 61 27.0088 
89 61 27.0088 90 61 27.0088 91 61 27.0088 
92 61 27.0088 93 61 27.0088 94 61 27.0088 
95 61 27.0088 95.9912 61 28 96 60.9912 28 
87 62 27.0088 86.0088 62 28 88 62 27.0088 
89 62 27.0088 90 62 27.0088 91 62 27.0088 
92 62 27.0088 93 62 27.0088 94 62 27.0088 
94.9912 62 28 95 61.9912 28 87 63 27.0088 
86.0088 63 28 88 63 27.0088 89 63 27.0088 
90 63 27.0088 91 63 27.0088 92 63 27.0088 
93 63 27.0088 93.9912 63 28 94 62.9912 28 
87 63.9912 28 88 63.9912 28 89 63.9912 28 
90 63.9912 28 91 63.9912 28 92 63.9912 28 
93 63.9912 28 94 55 28.0088 94 54.0088 29 
93.0088 55 29 95 55 28.0088 95 54.0088 29 
95.9912 55 29 94 56 28.0088 93.0088 56 29 
96 55.0088 29 96.9912 56 29 87 57 28.0088 
87 56.0088 29 86.0088 57 29 88 57 28.0088 
88 56.0088 29 89 57 28.0088 89 56.0088 29 
90 57 28.0088 90 56.0088 29 90.9912 57 29 
94 57 28.0088 93.0088 57 29 96.9912 57 29 
86.0088 58 29 90.9912 58 29 94 58 28.0088 
93.0088 58 29 96.9912 58 29 86.0088 59 29 
91 58.0088 29 91 59 28.0088 92 59 28.0088 
92 58.0088 29 93 59 28.0088 93 58.0088 29 
96.9912 59 29 86.0088 60 29 96.9912 60 29 
86.0088 61 29 95.9912 61 29 96 60.9912 29 
86.0088 62 29 94.9912 62 29 95 61.9912 29 
86.0088 63 29 94 63 28.0088 94.9912 63 29 
87 63.9912 29 88 63.9912 29 89 63.9912 29 
90 63.9912 29 91 63.9912 29 92 63.9912 29 
93 63.9912 29 94 63.9912 29 94 53 29.0088 
94 52.0088 30 93.0088 53 30 94.9912 53 30 
87 54 29.0088 87 53.0088 30 86.0088 54 30 
88 54 29.0088 88 53.0088 30 89 54 29.0088 
89 53.0088 30 90 54 29.0088 90 53.0088 30 
90.9912 54 30 93 54 29.0088 93 53.0088 30 
92.0088 54 30 94 54 29.0088 95 53.0088 30 
95 54 29.0088 96 54 29.0088 96 53.0088 30 
96.9912 54 30 87 55 29.0088 86.0088 55 30 
88 55 29.0088 89 55 29.0088 90 55 29.0088 
90.9912 55 30 92 55 29.0088 92 54.0088 30 
91.0088 55 30 93 55 29.0088 96 55 29.0088 
96.9912 55 30 87 56 29.0088 86.0088 56 30 
88 56 29.0088 89 56 29.0088 90 56 29.0088 
91 55.0088 30 91 56 29.0088 92 56 29.0088 
93 56 29.0088 96.9912 56 30 86.0088 57 30 
91 57 29.0088 92 57 29.0088 93 57 29.0088 
96.9912 57 30 86.0088 58 30 91 58 29.0088 
92 58 29.0088 93 58 29.0088 96.9912 58 30 
86.0088 59 30 96.9912 59 30 86.0088 60 30 
96.9912 60 30 86.0088 61 30 96 61 29.0088 
96.9912 61 30 86.0088 62 30 95 62 29.0088 
96 62 29.0088 96.9912 62 30 86.0088 63 30 
95 63 29.0088 95.9912 63 30 96 62.9912 30 
87 63.9912 30 88 63.9912 30 89 63.9912 30 
90 63.9912 30 91 63.9912 30 92 63.9912 30 
93 63.9912 30 94 63.9912 30 95 63.9912 30 
87 53 30.0088 87 52.0088 31 86.0088 53 31 
88 53 30.0088 88 52.0088 31 89 53 30.0088 
89 52.0088 31 90 53 30.0088 90 52.0088 31 
90.9912 53 31 92 53 30.0088 92 52.0088 31 
91.0088 53 31 93 53 30.0088 93 52.0088 31 
94 52.0088 31 94.9912 53 31 86.0088 54 31 
90.9912 54 31 92 54 30.0088 91.0088 54 31 
95 53.0088 31 96 53.0088 31 96.9912 54 31 
86.0088 55 31 91 54.0088 31 91 55 30.0088 
96.9912 55 31 86.0088 56 31 96.9912 56 31 
86.0088 57 31 96.9912 57 31 86.0088 58 31 
96.9912 58 31 86.0088 59 31 96.9912 59 31 
86.0088 60 31 96.9912 60 31 86.0088 61 31 
96.9912 61 31 86.0088 62 31 96.9912 62 31 
86.0088 63 31 95.9912 63 31 96 62.9912 31 
87 63.9912 31 88 63.9912 31 89 63.9912 31 
90 63.9912 31 91 63.9912 31 92 63.9912 31 
93 63.9912 31 94 63.9912 31 95 63.9912 31 
92 51 31.0088 92 50.0088 32 91.0088 51 32 
92.9912 51 32 89 52 31.0088 89 51.0088 32 
88.0088 52 32 90 52 31.0088 90 51.0088 32 
91 52 31.0088 91 51.0088 32 92 52 31.0088 
93 51.0088 32 93 52 31.0088 94 52 31.0088 
94 51.0088 32 94.9912 52 32 87 53 31.9912 
87.0088 53 32 88 52.0088 32 91 53 31.0088 
94.9912 53 32 87 53.0088 32 86.0088 54 32 
91 54 31.0088 95 53.0088 32 96 53.0088 32 
96.9912 54 32 86.0088 55 32 96.9912 55 32 
86.0088 56 32 96.9912 56 32 86.0088 57 32 
96.9912 57 32 86.0088 58 32 96.9912 58 32 
86.0088 59 32 96.9912 59 32 86.0088 60 32 
96.9912 60 32 86.0088 61 32 96.9912 61 32 
86.0088 62 32 96.9912 62 32 86.0088 63 32 
95.9912 63 32 96 62.9912 32 87 63.9912 32 
88 63.9912 32 89 63.9912 32 90 63.9912 32 
91 63.9912 32 92 63.9912 32 93 63.9912 32 
94 63.9912 32 95 63.9912 32 89 51 32.0088 
89 50.0088 33 88.0088 51 33 90 51 32.0088 
90 50.0088 33 90.9912 51 33 92 50.0088 33 
91.0088 51 33 93 51 32.0088 93 50.0088 33 
93.9912 51 33 88 52 32.0088 88 51.0088 33 
87.0088 52 33 91 51.0088 33 94 51.0088 33 
94.9912 52 33 87 53 32.0088 87 52.0088 33 
86.0088 53 33 95 52.0088 33 95 53 32.0088 
95.9912 53 33 86.0088 54 33 96 53.0088 33 
96.9912 54 33 86.0088 55 33 96.9912 55 33 
86.0088 56 33 96.9912 56 33 86.0088 57 33 
96.9912 57 33 86.0088 58 33 96.9912 58 33 
86.0088 59 33 96.9912 59 33 86.0088 60 33 
96.9912 60 33 86.0088 61 33 96.9912 61 33 
86.0088 62 33 96.9912 62 33 86.0088 63 33 
95.9912 63 33 96 62.9912 33 87 63.9912 33 
88 63.9912 33 89 63.9912 33 90 63.9912 33 
91 63.9912 33 92 63.9912 33 93 63.9912 33 
94 63.9912 33 95 63.9912 33 89 51 33.9912 
89.0088 51 34 90 50.0088 34 90.9912 51 34 
92 50.0088 34 91.0088 51 34 93 51 33.9912 
92.9912 51 34 88 52 33.9912 88.0088 52 34 
89 51.0088 34 91 51.0088 34 93 51.0088 34 
94 51.0088 34 94.9912 52 34 87 53 33.9912 
87.0088 53 34 88 52.0088 34 95 53 33.9912 
94.9912 53 34 87 53.0088 34 86.0088 54 34 
95 53.0088 34 96 53.0088 34 96.9912 54 34 
86.0088 55 34 96.9912 55 34 86.0088 56 34 
96.9912 56 34 86.0088 57 34 96.9912 57 34 
86.0088 58 34 96.9912 58 34 86.0088 59 34 
96.9912 59 34 86.0088 60 34 96.9912 60 34 
86.0088 61 34 96.9912 61 34 86.0088 62 34 
96.9912 62 34 86.0088 63 34 95.9912 63 34 
96 62.9912 34 87 64 33.0088 86.0088 64 34 
88 64 33.0088 89 64 33.0088 90 64 33.0088 
91 64 33.0088 92 64 33.0088 93 64 33.0088 
94 64 33.0088 94.9912 64 34 95 63.9912 34 
87 65 33.0088 86.0088 65 34 88 65 33.0088 
89 65 33.0088 90 65 33.0088 91 65 33.0088 
92 65 33.0088 93 65 33.0088 93.9912 65 34 
94 64.9912 34 87 65.9912 34 88 65.9912 34 
89 65.9912 34 90 65.9912 34 91 65.9912 34 
92 65.9912 34 93 65.9912 34 90 50.0088 35 
89.0088 51 35 91 51 34.0088 91 50.0088 35 
92 50.0088 35 92.9912 51 35 89 51.0088 35 
88.0088 52 35 93 51.0088 35 94 51.0088 35 
94.9912 52 35 88 52.0088 35 87.0088 53 35 
94.9912 53 35 87 53.0088 35 86.0088 54 35 
95 53.0088 35 96 53.0088 35 96.9912 54 35 
86.0088 55 35 96.9912 55 35 86.0088 56 35 
96.9912 56 35 86.0088 57 35 96.9912 57 35 
86.0088 58 35 96.9912 58 35 86.0088 59 35 
96.9912 59 35 86.0088 60 35 96.9912 60 35 
86.0088 61 35 96.9912 61 35 86.0088 62 35 
96.9912 62 35 86.0088 63 35 95.9912 63 35 
96 62.9912 35 86.0088 64 35 94.9912 64 35 
95 63.9912 35 86.0088 65 35 93.9912 65 35 
94 64.9912 35 87 65.9912 35 88 65.9912 35 
89 65.9912 35 90 65.9912 35 91 65.9912 35 
92 65.9912 35 93 65.9912 35 90 50.0088 36 
89.0088 51 36 91 51 35.9912 90.9912 51 36 
91.0088 51 36 92 50.0088 36 92.9912 51 36 
89 51.0088 36 88.0088 52 36 91 51.0088 36 
93 51.0088 36 94 51.0088 36 94.9912 52 36 
88 52.0088 36 87.0088 53 36 94.9912 53 36 
87 53.0088 36 86.0088 54 36 95 53.0088 36 
96 53.0088 36 96.9912 54 36 86.0088 55 36 
96.9912 55 36 86.0088 56 36 96.9912 56 36 
86.0088 57 36 96.9912 57 36 86.0088 58 36 
96.9912 58 36 86.0088 59 36 96.9912 59 36 
86.0088 60 36 96.9912 60 36 86.0088 61 36 
96.9912 61 36 86.0088 62 36 96.9912 62 36 
86.0088 63 36 96 63 35.0088 96.9912 63 36 
86.0088 64 36 95 64 35.0088 96 64 35.0088 
96.9912 64 36 86.0088 65 36 94 65 35.0088 
95 65 35.0088 95.9912 65 36 96 64.9912 36 
87 65.9912 36 88 65.9912 36 89 65.9912 36 
90 65.9912 36 91 65.9912 36 92 65.9912 36 
93 65.9912 36 94 65.9912 36 95 65.9912 36 
90 51 36.9912 92 51 36.9912 89 51.0088 37 
88.0088 52 37 90 51.0088 37 91 51.0088 37 
92 51.0088 37 93 51.0088 37 94 52 36.9912 
93.9912 52 37 88 52.0088 37 87.0088 53 37 
94 52.0088 37 94.9912 53 37 86 54 36.0088 
86 53.0088 37 85.0088 54 37 87 53.0088 37 
95 53.0088 37 96 54 36.9912 95.9912 54 37 
86 54.9912 37 86.0088 55 37 96 55 36.9912 
95.9912 55 37 86.0088 56 37 96 56 36.9912 
95.9912 56 37 86.0088 57 37 96 57 36.9912 
95.9912 57 37 86.0088 58 37 96 58 36.9912 
95.9912 58 37 86.0088 59 37 96 59 36.9912 
95.9912 59 37 86.0088 60 37 96 60 36.9912 
95.9912 60 37 86.0088 61 37 96 61 36.9912 
95.9912 61 37 86.0088 62 37 96 61.0088 37 
96.9912 62 37 86.0088 63 37 96.9912 63 37 
86.0088 64 37 96.9912 64 37 86.0088 65 37 
95.9912 65 37 96 64.9912 37 87 65.9912 37 
88 65.9912 37 89 65.9912 37 90 65.9912 37 
91 65.9912 37 92 65.9912 37 93 65.9912 37 
94 65.9912 37 95 65.9912 37 89 52 37.9912 
90 52 37.9912 91 52 37.9912 92 52 37.9912 
93 52 37.9912 88 52.0088 38 87.0088 53 38 
89 53 37.9912 88.9912 53 38 90 53 37.9912 
91 53 37.9912 92 53 37.9912 93 53 37.9912 
94 53 37.9912 86 54 37.9912 86.0088 54 38 
87 53.0088 38 89 53.0088 38 90 53.0088 38 
91 53.0088 38 92 53.0088 38 93 53.0088 38 
94 53.0088 38 95 54 37.9912 94.9912 54 38 
86.0088 55 38 95 55 37.9912 94.9912 55 38 
87 55.9912 38 87 56 37.9912 88 55.9912 38 
88 56 37.9912 88.0088 56 38 95 56 37.9912 
94.9912 56 38 87 57 37.9912 87.0088 57 38 
88 56.0088 38 95 57 37.9912 94.9912 57 38 
87 57.0088 38 86.0088 58 38 95 58 37.9912 
94.9912 58 38 86.0088 59 38 95 59 37.9912 
94.9912 59 38 86.0088 60 38 95 60 37.9912 
94.9912 60 38 86.0088 61 38 95 61 37.9912 
94.9912 61 38 86.0088 62 38 95 61.0088 38 
96 61.0088 38 96.9912 62 38 86.0088 63 38 
[...]
POINT_DATA 1324
SCALARS scalars float
LOOKUP_TABLE default
1 1 1 1 1 1 1 1 1 
1 1 1 1 1 1 1 1 1 
1 1 1 1 1 1 1 1 1 
1 1 1 1 1 1 1 1 1 
1 1 1 1 1 1 1 1 1 
1 1 1 1 1 1 1 1 1 
1 1 1 1 1 1 1 1 1 
1 1 1 1 1 1 1 1 1 
1 1 1 1 1 1 1 1 1 
1 1 1 1 1 1 1 1 1 
1 1 1 1 1 1 1 1 1 
1 1 1 1 1 1 1 1 1 
1 1 1 1 1 1 1 1 1 
1 1 1 1 1 1 1 1 1 
1 1 1 1 1 1 1 1 1 
1 1 1 1 1 1 1 1 1 
1 1 1 1 1 1 1 1 1 
1 1 1 1 1 1 1 1 1 
1 1 1 1 1 1 1 1 1 
1 1 1 1 1 1 1 1 1 
1 1 1 1 1 1 1 1 1 
1 1 1 1 1 1 1 1 1 
1 1 1 1 1 1 1 1 1 
1 1 1 1 1 1 1 1 1 
1 1 1 1 1 1 1 1 1 
1 1 1 1 1 1 1 1 1 
1 1 1 1 1 1 1 1 1 
1 1 1 1 1 1 1 1 1 
1 1 1 1 1 1 1 1 1 
1 1 1 1 1 1 1 1 1 
1 1 1 1 1 1 1 1 1 
1 1 1 1 1 1 1 1 1 
1 1 1 1 1 1 1 1 1 
1 1 1 1 1 1 1 1 1 
1 1 1 1 1 1 1 1 1 
1 1 1 1 1 1 1 1 1 
1 1 1 1 1 1 1 1 1 
1 1 1 1 1 1 1 1 1 
1 1 1 1 1 1 1 1 1 
1 1 1 1 1 1 1 1 1 
1 1 1 1 1 1 1 1 1 
1 1 1 1 1 1 1 1 1 
1 1 1 1 1 1 1 1 1 
1 1 1 1 1 1 1 1 1 
1 1 1 1 1 1 1 1 1 
1 1 1 1 1 1 1 1 1 
1 1 1 1 1 1 1 1 1 
1 1 1 1 1 1 1 1 1 
1 1 1 1 1 1 1 1 1 
1 1 1 1 1 1 1 1 1 
1 1 1 1 1 1 1 1 1 
1 1 1 1 1 1 1 1 1 
1 1 1 1 1 1 1 1 1 
1 1 1 1 1 1 1 1 1 
1 1 1 1 1 1 1 1 1 
1 1 1 1 1 1 1 1 1 
1 1 1 1 1 1 1 1 1 
1 1 1 1 1 1 1 1 1 
1 1 1 1 1 1 1 1 1 
1 1 1 1 1 1 1 1 1 
1 1 1 1 1 1 1 1 1 
1 1 1 1 1 1 1 1 1 
1 1 1 1 1 1 1 1 1 
1 1 1 1 1 1 1 1 1 
1 1 1 1 1 1 1 1 1 
1 1 1 1 1 1 1 1 1 
1 1 1 1 1 1 1 1 1 
1 1 1 1 1 1 1 1 1 
1 1 1 1 1 1 1 1 1 
1 1 1 1 1 1 1 1 1 
1 1 1 1 1 1 1 1 1 
1 1 1 1 1 1 1 1 1 
1 1 1 1 1 1 1 1 1 
1 1 1 1 1 1 1 1 1 
1 1 1 1 1 1 1 1 1 
1 1 1 1 1 1 1 1 1 
1 1 1 1 1 1 1 1 1 
1 1 1 1 1 1 1 1 1 
1 1 1 1 1 1 1 1 1 
1 1 1 1 1 1 1 1 1 
1 1 1 1 1 1 1 1 1 
1 1 1 1 1 1 1 1 1 
1 1 1 1 1 1 1 1 1 
1 1 1 1 1 1 1 1 1 
1 1 1 1 1 1 1 1 1 
1 1 1 1 1 1 1 1 1 
1 1 1 1 1 1 1 1 1 
1 1 1 1 1 1 1 1 1 
1 1 1 1 1 1 1 1 1 
1 1 1 1 1 1 1 1 1 
1 1 1 1 1 1 1 1 1 
1 1 1 1 1 1 1 1 1 
1 1 1 1 1 1 1 1 1 
1 1 1 1 1 1 1 1 1 
1 1 1 1 1 1 1 1 1 
1 1 1 1 1 1 1 1 1 
1 1 1 1 1 1 1 1 1 
1 1 1 1 1 1 1 1 1 
1 1 1 1 1 1 1 1 1 
1 1 1 1 1 1 1 1 1 
1 1 1 1 1 1 1 1 1 
1 1 1 1 1 1 1 1 1 
1 1 1 1 1 1 1 1 1 
1 1 1 1 1 1 1 1 1 
1 1 1 1 1 1 1 1 1 
1 1 1 1 1 1 1 1 1 
1 1 1 1 1 1 1 1 1 
1 1 1 1 1 1 1 1 1 
1 1 1 1 1 1 1 1 1 
1 1 1 1 1 1 1 1 1 
1 1 1 1 1 1 1 1 1 
1 1 1 1 1 1 1 1 1 
1 1 1 1 1 1 1 1 1 
1 1 1 1 1 1 1 1 1 
1 1 1 1 1 1 1 1 1 
1 1 1 1 1 1 1 1 1 
1 1 1 1 1 1 1 1 1 
1 1 1 1 1 1 1 1 1 
1 1 1 1 1 1 1 1 1 
1 1 1 1 1 1 1 1 1 
1 1 1 1 1 1 1 1 1 
1 1 1 1 1 1 1 1 1 
1 1 1 1 1 1 1 1 1 
1 1 1 1 1 1 1 1 1 
1 1 1 1 1 1 1 1 1 
1 1 1 1 1 1 1 1 1 
1 1 1 1 1 1 1 1 1 
1 1 1 1 1 1 1 1 1 
1 1 1 1 1 1 1 1 1 
1 1 1 1 1 1 1 1 1 
1 1 1 1 1 1 1 1 1 
1 1 1 1 1 1 1 1 1 
1 1 1 1 1 1 1 1 1 
1 1 1 1 1 1 1 1 1 
1 1 1 1 1 1 1 1 1 
1 1 1 1 1 1 1 1 1 
1 1 1 1 1 1 1 1 1 
1 1 1 1 1 1 1 1 1 
1 1 1 1 1 1 1 1 1 
1 1 1 1 1 1 1 1 1 
1 1 1 1 1 1 1 1 1 
1 1 1 1 1 1 1 1 1 
1 1 1 1 1 1 1 1 1 
1 1 1 1 1 1 1 1 1 
1 1 1 1 1 1 1 1 1 
1 1 1 1 1 1 1 1 1 
1 1 1 1 1 1 1 1 1 
1 
NORMALS normals float
-0.00877125 -0.00877125 -0.999923 -0.00620257 -0.707093 -0.707093 -0.707093 -0.00620257 -0.707093 
0.00877125 -0.00877125 -0.999923 0.00877125 -0.999923 -0.00877125 0.999923 -0.00877125 -0.00877125 
-0.00877159 0 -0.999962 -0.707107 0 -0.707107 0.00877159 0 -0.999962 
0.999962 0 -0.00877159 -0.00877125 -0.00877125 -0.999923 -0.00620257 -0.707093 -0.707093 
-0.999923 -0.00877125 -0.00877125 0 -0.00877159 -0.999962 0 -0.707107 -0.707107 
0 -0.00877159 -0.999962 0 -0.707107 -0.707107 0.00877125 -0.00877125 -0.999923 
0.00620257 -0.707093 -0.707093 0.999923 -0.00877125 -0.00877125 -0.00877159 0 -0.999962 
-0.579038 -0.573959 -0.579038 0.00877159 0 -0.999962 0.999962 0 -0.00877159 
-0.00877159 0 -0.999962 -0.999962 0 -0.00877159 0 0 -1 
0 0 -1 0.00877159 0 -0.999962 0.579038 -0.573959 -0.579038 
-0.00877125 -0.00877125 -0.999923 -0.57735 -0.57735 -0.57735 -0.57735 -0.57735 -0.57735 
0 0 -1 0.00877159 0 -0.999962 0.999962 0 -0.00877159 
-0.00877159 0 -0.999962 -0.999962 0 -0.00877159 0 0 -1 
0 0 -1 0 0 -1 0.573959 -0.579038 -0.579038 
0 -0.00877159 -0.999962 0 -0.00877159 -0.999962 0 -0.707107 -0.707107 
0 -0.00877159 -0.999962 -0.573959 -0.579038 -0.579038 0 0 -1 
0 0 -1 0.00877125 0.00877125 -0.999923 0.999923 0.00877125 -0.00877125 
-0.00877159 0 -0.999962 -0.999962 0 -0.00877159 0 0 -1 
0 0 -1 0 0 -1 0 0 -1 
0 0 -1 0 0 -1 0 0 -1 
0.00877125 0.00877125 -0.999923 0.707093 0.707093 -0.00620257 0.707093 0.707093 -0.00620257 
-0.00877159 0 -0.999962 -0.999962 0 -0.00877159 0 0 -1 
0 0 -1 0 0 -1 0 0 -1 
0 0 -1 0 0 -1 0.00877125 0.00877125 -0.999923 
0.707093 0.707093 -0.00620257 0.707093 0.707093 -0.00620257 -0.00877125 0.00877125 -0.999923 
-0.999923 0.00877125 -0.00877125 0 0.00877159 -0.999962 0 0.00877159 -0.999962 
0 0.00877159 -0.999962 0 0.00877159 -0.999962 0 0.00877159 -0.999962 
0.00877125 0.00877125 -0.999923 0.57735 0.57735 -0.57735 0.57735 0.57735 -0.57735 
-0.00877125 0.999923 -0.00877125 0 0.999962 -0.00877159 0 0.999962 -0.00877159 
0 0.999962 -0.00877159 0 0.999962 -0.00877159 0 0.999962 -0.00877159 
0.00877125 0.999923 -0.00877125 -0.00877125 -0.00877125 -0.999923 -0.00620257 -0.707093 -0.707093 
-0.707093 -0.00620257 -0.707093 0.00620257 -0.707093 -0.707093 0.00620257 -0.707093 -0.707093 
0.57735 -0.57735 -0.57735 -0.707107 0 -0.707107 -0.707107 0 -0.707107 
0.579038 -0.579038 -0.573959 0.999962 -0.00877159 0 -0.00620257 -0.707093 -0.707093 
-0.00620257 -0.707093 -0.707093 -0.999923 -0.00877125 -0.00877125 0 -0.707107 -0.707107 
0 -0.707107 -0.707107 0 -0.707107 -0.707107 0 -0.707107 -0.707107 
0.00620257 -0.707093 -0.707093 0.00620257 -0.707093 -0.707093 0.707093 -0.00620257 -0.707093 
-0.707107 0 -0.707107 -0.707107 0 -0.707107 1 0 0 
-1 0 0 0.580741 -0.575647 -0.575647 -0.579038 -0.573959 -0.579038 
-0.579038 -0.573959 -0.579038 1 0 0 -1 0 0 
0.573959 -0.579038 -0.579038 0.573959 -0.579038 -0.579038 0 -0.707107 -0.707107 
0 -0.707107 -0.707107 -0.573959 -0.579038 -0.579038 -0.573959 -0.579038 -0.579038 
1 0 0 -1 0 0 0.999962 0.00877159 0 
-1 0 0 0.579038 0.579038 -0.573959 0.579038 0.579038 -0.573959 
-1 0 0 0.580741 0.575647 -0.575647 0.579038 0.579038 -0.573959 
-0.999962 0.00877159 0 0.57735 0.57735 -0.57735 0.707093 0.00620257 -0.707093 
-0.00877159 0.999962 0 0 1 0 0 1 0 
0 1 0 0 1 0 0 1 0 
0 1 0 0.00877125 0.999923 -0.00877125 0 -0.00877159 -0.999962 
0 -0.999962 -0.00877159 -0.573959 -0.579038 -0.579038 0.703971 -0.710201 -0.00622983 
-0.00877125 -0.00877125 -0.999923 -0.00620257 -0.707093 -0.707093 -0.999923 -0.00877125 -0.00877125 
0 -0.00877159 -0.999962 0 -0.707107 -0.707107 0 -0.00877159 -0.999962 
0 -0.707107 -0.707107 0.00877125 -0.00877125 -0.999923 0.00620257 -0.707093 -0.707093 
0.999923 -0.00877125 -0.00877125 -0.00877125 -0.00877125 -0.999923 -0.57735 -0.57735 -0.57735 
-0.57735 -0.57735 -0.57735 0 -0.703985 -0.710215 0.703971 -0.710201 -0.00622983 
0 -0.707107 -0.707107 0.00877125 -0.00877125 -0.999923 0.00877125 -0.999923 -0.00877125 
0.999923 -0.00877125 -0.00877125 -0.00877159 0 -0.999962 -0.999962 0 -0.00877159 
0 0 -1 0 0 -1 0.00877159 0 -0.999962 
0.00622983 -0.703971 -0.710201 -0.00877125 -0.00877125 -0.999923 -0.57735 -0.57735 -0.57735 
-0.00620257 -0.707093 -0.707093 -0.703985 0 -0.710215 0.579038 -0.573959 -0.579038 
0.999962 0 -0.00877159 -0.00622983 -0.703971 -0.710201 -0.999962 0 -0.00877159 
0 -0.703985 -0.710215 0 -0.703985 -0.710215 0 -0.703985 -0.710215 
0 -0.707107 -0.707107 0 -0.00877159 -0.999962 0 0 -1 
-0.703985 0 -0.710215 1 0 0 -1 0 0 
0.703985 0 -0.710215 0 0 -1 -0.703985 0 -0.710215 
1 0 0 -1 0 0 0.575647 -0.575647 -0.580741 
0 -0.703985 -0.710215 -0.575647 -0.575647 -0.580741 1 0 0 
-1 0 0 1 0 0 -1 0 0 
1 0 0 -1 0 0 0.579038 0.573959 -0.579038 
0.999962 0 -0.00877159 -1 0 0 0.575647 0.575647 -0.580741 
0.00877125 0.00877125 -0.999923 0.999923 0.00877125 -0.00877125 -0.999962 0.00877159 0 
0.707093 0.00620257 -0.707093 0.707093 0.707093 -0.00620257 0.707093 0.707093 -0.00620257 
-0.00877159 0.999962 0 0 1 0 0 1 0 
0 1 0 0 1 0 0 1 0 
0 1 0 0 1 0 0.00877125 0.999923 -0.00877125 
-0.00622983 -0.710201 -0.703971 -0.00877159 -0.999962 0 -0.999962 -0.00877159 0 
0 -0.707107 -0.707107 0 -0.999962 -0.00877159 0 -0.707107 -0.707107 
0 -0.707107 -0.707107 0.00620257 -0.707093 -0.707093 0.00620257 -0.707093 -0.707093 
0.00877125 -0.00877125 -0.999923 -0.00877125 -0.00877125 -0.999923 -0.00620257 -0.707093 -0.707093 
-0.00877125 -0.00877125 -0.999923 -0.573959 -0.579038 -0.579038 0 -0.707107 -0.707107 
0.00622983 -0.710201 -0.703971 0.707107 -0.707107 0 -1 0 0 
0.00625746 -0.707093 -0.707093 -0.579038 -0.573959 -0.579038 -0.00622983 -0.703971 -0.710201 
0.703985 -0.710215 0 0.00877159 -0.999962 0 0.999962 -0.00877159 0 
-1 0 0 0 -0.707107 -0.707107 0 -0.707107 -0.707107 
1 0 0 -1 0 0 1 0 0 
-1 0 0 1 0 0 -1 0 0 
1 0 0 -1 0 0 1 0 0 
-1 0 0 1 0 0 -1 0 0 
1 0 0 -1 0 0 0.999962 0.00877159 0 
-0.999962 0.00877159 0 0.707107 0.707107 0 0.707107 0.707107 0 
-0.00877159 0.999962 0 0 1 0 0 1 0 
0 1 0 0 1 0 0 1 0 
0 1 0 0 1 0 0.00877159 0.999962 0 
0 -0.00877159 -0.999962 0 -0.999962 -0.00877159 -0.703971 -0.710201 -0.00622983 
0.573959 -0.579038 -0.579038 -0.00620257 -0.707093 -0.707093 -0.00620257 -0.707093 -0.707093 
-0.57735 -0.57735 -0.57735 0 -0.707107 -0.707107 0 -0.707107 -0.707107 
0 -0.00877159 -0.999962 -0.703971 -0.710201 -0.00622983 0 -0.703985 -0.710215 
0.573959 -0.579038 -0.579038 0 -0.707107 -0.707107 0.00620257 -0.707093 -0.707093 
0.00877125 -0.999923 -0.00877125 0.999923 -0.00877125 -0.00877125 -0.707107 -0.707107 0 
-0.707107 -0.707107 0 -0.579038 -0.579038 -0.573959 0 0 -1 
0.580741 -0.575647 -0.575647 -0.707107 -0.707107 0 -0.999962 -0.00877159 0 
0 -0.703985 -0.710215 0.575647 -0.580741 -0.575647 0.00877159 -0.999962 0 
0.999962 -0.00877159 0 -1 0 0 1 0 0 
-1 0 0 1 0 0 -1 0 0 
1 0 0 -1 0 0 1 0 0 
-1 0 0 1 0 0 -1 0 0 
1 0 0 -1 0 0 1 0 0 
-1 0 0 0.999962 0.00877159 0 -0.999962 0.00877159 0 
0.707107 0.707107 0 0.707107 0.707107 0 -0.00877159 0.999962 0 
0 1 0 0 1 0 0 1 0 
0 1 0 0 1 0 0 1 0 
0 1 0 0.00877159 0.999962 0 -0.00622983 -0.710201 -0.703971 
-0.00877159 -0.999962 0 -0.707107 -0.707107 0 0.00620257 -0.707093 -0.707093 
0.00877125 -0.999923 -0.00877125 0.00877125 -0.999923 -0.00877125 -0.00877159 -0.999962 0 
-0.00877159 -0.999962 0 0.579038 -0.579038 -0.573959 0.00877159 -0.999962 0 
0.707107 -0.707107 0 -0.579038 -0.579038 -0.573959 -0.707107 -0.707107 0 
-0.707107 -0.707107 0 0 -1 0 0.707107 -0.707107 0 
0.707107 -0.707107 0 -0.707107 -0.707107 0 -0.707107 -0.707107 0 
-0.999962 -0.00877159 0 0.707107 -0.707107 0 0.579038 -0.579038 -0.573959 
0.707107 -0.707107 0 -1 0 0 0.707107 -0.707107 0 
0.999962 -0.00877159 0 -1 0 0 1 0 0 
-1 0 0 1 0 0 -1 0 0 
1 0 0 -1 0 0 1 0 0 
-1 0 0 1 0 0 -1 0 0 
1 0 0 -1 0 0 1 0 0 
-1 0 0 0.999962 0.00877159 0 -0.999962 0.00877159 0 
0.707107 0.707107 0 0.707107 0.707107 0 -0.00622983 0.710201 -0.703971 
0 0.710215 -0.703985 0 0.710215 -0.703985 0 0.710215 -0.703985 
0 0.710215 -0.703985 0 0.710215 -0.703985 0 0.710215 -0.703985 
0 0.710215 -0.703985 0.00877159 0.999962 0 -0.579038 -0.579038 0.573959 
-0.575647 -0.580741 0.575647 0 -1 0 0 -0.710215 -0.703985 
0 -1 0 0 -0.710215 -0.703985 0.579038 -0.579038 0.573959 
0.575647 -0.580741 0.575647 -0.579038 -0.579038 0.573959 -0.579038 -0.579038 0.573959 
-0.579038 -0.579038 0.573959 0 -0.710215 -0.703985 0.575647 -0.580741 0.575647 
0.00877159 -0.999962 0 0.999962 -0.00877159 0 -0.579038 -0.579038 0.573959 
-0.579038 -0.579038 0.573959 -0.579038 -0.579038 0.573959 0.579038 -0.579038 0.573959 
0.580741 -0.575647 0.575647 -0.579038 -0.579038 0.573959 -0.999962 -0.00877159 0 
0.575647 -0.580741 0.575647 0.00877159 -0.999962 0 0.999962 -0.00877159 0 
-1 0 0 1 0 0 -1 0 0 
1 0 0 -1 0 0 1 0 0 
-1 0 0 1 0 0 -1 0 0 
1 0 0 -1 0 0 1 0 0 
-1 0 0 1 0 0 -1 0 0 
0.999962 0.00877159 0 -1 0 0 0.707107 0.707107 0 
0.707107 0.707107 0 -0.00622983 0.703971 -0.710201 -0.999962 0 -0.00877159 
0 0.703985 -0.710215 0 0.703985 -0.710215 0 0.703985 -0.710215 
0 0.703985 -0.710215 0 0.703985 -0.710215 0 0.703985 -0.710215 
0.00620257 0.707093 -0.707093 0.707093 0.707093 -0.00620257 0.707107 0.707107 0 
-0.00877125 0.00877125 -0.999923 -0.999923 0.00877125 -0.00877125 0 0.00877159 -0.999962 
0 0.00877159 -0.999962 0 0.00877159 -0.999962 0 0.00877159 -0.999962 
0 0.00877159 -0.999962 0.00877125 0.00877125 -0.999923 0.707093 0.707093 -0.00620257 
0.707093 0.707093 -0.00620257 -0.00877125 0.999923 -0.00877125 0 0.999962 -0.00877159 
0 0.999962 -0.00877159 0 0.999962 -0.00877159 0 0.999962 -0.00877159 
0 0.999962 -0.00877159 0.00877125 0.999923 -0.00877125 -0.00877159 -0.999962 0 
-0.707107 -0.707107 0 0 -0.710215 -0.703985 0 -1 0 
0.00877159 -0.999962 0 0.707107 -0.707107 0 -0.707107 -0.707107 0 
-0.707107 -0.707107 0 0.703985 -0.710215 0 0.00877159 -0.999962 0 
0.999962 -0.00877159 0 -0.707107 -0.707107 0 -0.707107 -0.707107 0 
0.710215 -0.703985 0 -0.707107 -0.707107 0 -0.999962 -0.00877159 0 
0.703985 -0.710215 0 0.00877159 -0.999962 0 0.999962 -0.00877159 0 
-1 0 0 1 0 0 -1 0 0 
1 0 0 -1 0 0 1 0 0 
-1 0 0 1 0 0 -1 0 0 
1 0 0 -1 0 0 1 0 0 
-1 0 0 1 0 0 -1 0 0 
0.999962 0.00877159 0 -1 0 0 0.579038 0.579038 -0.573959 
0.579038 0.579038 -0.573959 -1 0 0 0.579038 0.579038 -0.573959 
0.579038 0.579038 -0.573959 -0.999962 0.00877159 0 0.579038 0.579038 -0.573959 
0.579038 0.579038 -0.573959 -0.00877159 0.999962 0 0 1 0 
0 1 0 0 1 0 0 1 0 
0 1 0 0.00877159 0.999962 0 0 -0.999962 0.00877159 
-0.703971 -0.710201 0.00622983 0 -0.710215 0.703985 0 -0.707107 0.707107 
0 -0.707107 0.707107 0 -0.999962 0.00877159 0.703971 -0.710201 0.00622983 
-0.707107 -0.707107 0 -0.707107 -0.707107 0 0 -0.710215 0.703985 
0.703985 -0.710215 0 0.00877125 -0.999923 0.00877125 0.999923 -0.00877125 0.00877125 
-0.707107 -0.707107 0 -0.707107 -0.707107 0 0.710215 -0.703985 0 
-0.707107 -0.707107 0 -0.710201 -0.00622983 -0.703971 0.703985 -0.710215 0 
0.00877125 -0.999923 0.00877125 0.999923 -0.00877125 0.00877125 -1 0 0 
0.999962 0 0.00877159 -1 0 0 0.999962 0 0.00877159 
-1 0 0 0.999962 0 0.00877159 -1 0 0 
0.999962 0 0.00877159 -1 0 0 0.999962 0 0.00877159 
-1 0 0 0.999962 0 0.00877159 -1 0 0 
0.999962 0 0.00877159 -1 0 0 1 0 0 
-1 0 0 0.579038 0.573959 -0.579038 0.999962 0 -0.00877159 
-1 0 0 0.575647 0.575647 -0.580741 0.00877125 0.00877125 -0.999923 
0.999923 0.00877125 -0.00877125 -0.999962 0.00877159 0 0.573959 0.579038 -0.579038 
0.00877125 0.00877125 -0.999923 0.707093 0.707093 -0.00620257 0.707093 0.707093 -0.00620257 
-0.00877159 0.999962 0 0 1 0 0 1 0 
0 1 0 0 1 0 0 1 0 
0 1 0 0 0.999962 -0.00877159 0.00877125 0.999923 -0.00877125 
0 -0.707107 0.707107 0 -0.707107 0.707107 -0.00877125 -0.999923 0.00877125 
-0.707093 -0.707093 0.00620257 0 -0.707107 0.707107 0 -0.999962 0.00877159 
0 -0.707107 0.707107 0.00877125 -0.999923 0.00877125 0.57735 -0.57735 0.57735 
0.57735 -0.57735 0.57735 -0.707107 -0.707107 0 -0.707107 -0.707107 0 
0.57735 -0.57735 0.57735 0.707093 -0.707093 0.00620257 -0.710215 0 -0.703985 
-0.00884921 -0.999961 0 -1 0 0 -0.703985 -0.710215 0 
0.707093 -0.707093 0.00620257 0.707093 -0.00620257 0.707093 0.707093 -0.00620257 0.707093 
-0.710215 0.703985 0 -0.710215 0.703985 0 0.707107 0 0.707107 
0.707107 0 0.707107 -0.999962 0 0.00877159 0.707107 0 0.707107 
0.707107 0 0.707107 -0.999962 0 0.00877159 0.707107 0 0.707107 
0.707107 0 0.707107 -1 0 0 0.707107 0 0.707107 
0.707107 0 0.707107 -1 0 0 0.707107 0 0.707107 
0.707107 0 0.707107 -1 0 0 0.707107 0 0.707107 
0.707107 0 0.707107 -1 0 0 0.579038 -0.573959 0.579038 
0.579038 -0.573959 0.579038 -1 0 0 0.579038 -0.579038 0.573959 
0.999962 -0.00877159 0 -1 0 0 1 0 0 
-1 0 0 0.999962 0.00877159 0 -0.999962 0.00877159 0 
0.579038 0.579038 -0.573959 0.579038 0.579038 -0.573959 -0.00622983 0.710201 -0.703971 
0 0.710215 -0.703985 0 0.710215 -0.703985 0 0.710215 -0.703985 
0 0.710215 -0.703985 0 0.710215 -0.703985 0 0.710215 -0.703985 
0 0.710215 -0.703985 0.00622983 0.710201 -0.703971 -0.00877125 -0.00877125 0.999923 
0 -0.00877159 0.999962 0 -0.00877159 0.999962 0 -0.00877159 0.999962 
0.00877125 -0.00877125 0.999923 0 -0.999962 0.00877159 -0.703971 -0.710201 0.00622983 
0.575647 -0.575647 0.580741 0.573959 -0.579038 0.579038 0 -0.703985 0.710215 
0 -0.703985 0.710215 0 -0.703985 0.710215 0 -0.703985 0.710215 
0.00620257 -0.707093 0.707093 -0.710215 0 0.703985 -0.710201 -0.00622983 0.703971 
-0.707107 -0.707107 0 0.575647 -0.580741 0.575647 0 -0.710215 0.703985 
0 -0.710215 0.703985 0 -0.710215 0.703985 0 -0.710215 0.703985 
0.00620257 -0.707093 0.707093 0.707093 -0.00620257 0.707093 0.707093 -0.00620257 0.707093 
-0.999923 0.00877125 0.00877125 0.707107 0 0.707107 0.707107 0 0.707107 
-0.00620257 0.707093 0.707093 -0.00622983 0.703971 0.710201 -0.707093 0.00625746 0.707093 
-0.703985 0 0.710215 -0.710215 0 0.703985 0.707107 0 0.707107 
0.710215 0 0.703985 -0.579038 -0.573959 0.579038 -0.579038 -0.579038 0.573959 
-0.710201 -0.00622983 0.703971 0.707107 0 0.707107 0.710215 0 0.703985 
-0.579038 -0.579038 0.573959 -0.999962 -0.00877159 0 0.707107 0 0.707107 
0.710215 0 0.703985 -1 0 0 0.707107 0 0.707107 
0.710215 0 0.703985 -1 0 0 0.707107 0 0.707107 
0.710215 0 0.703985 -1 0 0 0.579038 -0.573959 0.579038 
0.580741 -0.575647 0.575647 -1 0 0 0.575647 -0.580741 0.575647 
0.00877125 -0.999923 0.00877125 0.999923 -0.00877125 0.00877125 -1 0 0 
0.999962 0 0.00877159 -1 0 0 1 0 0 
-1 0 0 0.579038 0.573959 -0.579038 0.999962 0 -0.00877159 
-0.00622983 0.703971 -0.710201 -0.999962 0 -0.00877159 0 0.703985 -0.710215 
0 0.703985 -0.710215 0 0.703985 -0.710215 0 0.703985 -0.710215 
0 0.703985 -0.710215 0 0.703985 -0.710215 0 0.703985 -0.710215 
0 0.703985 -0.710215 0.00877125 0.00877125 -0.999923 0.999923 0.00877125 -0.00877125 
-0.00877125 0.00877125 -0.999923 -0.999923 0.00877125 -0.00877125 0 0.00877159 -0.999962 
0 0.00877159 -0.999962 0 0.00877159 -0.999962 0 0.00877159 -0.999962 
0 0.00877159 -0.999962 0 0.00877159 -0.999962 0 0.00877159 -0.999962 
0.00877125 0.00877125 -0.999923 0.707093 0.707093 -0.00620257 0.707093 0.707093 -0.00620257 
-0.00877125 0.999923 -0.00877125 0 0.999962 -0.00877159 0 0.999962 -0.00877159 
0 0.999962 -0.00877159 0 0.999962 -0.00877159 0 0.999962 -0.00877159 
0 0.999962 -0.00877159 0 0.999962 -0.00877159 0.00877125 0.999923 -0.00877125 
0 -0.707107 0.707107 -0.00884886 -0.999922 0.00884886 -0.999962 0 0.00877159 
0 -0.707107 0.707107 0 -0.999962 0.00877159 0 -0.999962 0.00877159 
0 -0.999962 0.00877159 0 -0.999962 0.00877159 0.00877125 -0.999923 0.00877125 
0.707093 -0.00620257 0.707093 0.707093 -0.00620257 0.707093 -0.579038 0.573959 0.579038 
-0.57735 0.57735 0.57735 -0.57735 0.57735 0.57735 0.579038 -0.573959 0.579038 
0.579038 -0.573959 0.579038 -0.999923 0.00877125 0.00877125 -1 0 0 
0.57735 -0.57735 0.57735 0.999923 -0.00877125 0.00877125 -0.999962 -0.00877159 0 
-0.707107 -0.707107 0 0.999962 0 0.00877159 -0.707107 -0.707107 0 
-0.999962 -0.00877159 0 1 0 0 -1 0 0 
1 0 0 -1 0 0 1 0 0 
-1 0 0 0.710215 -0.703985 0 -1 0 0 
0.707093 -0.707093 0.00620257 0.707093 -0.00620257 0.707093 0.707093 -0.00620257 0.707093 
-1 0 0 0.579038 -0.573959 0.579038 0.579038 -0.573959 0.579038 
-1 0 0 0.579038 -0.579038 0.573959 0.999962 -0.00877159 0 
-1 0 0 1 0 0 -1 0 0 
0.999962 0.00877159 0 -0.999962 0.00877159 0 0.707107 0.707107 0 
0.707107 0.707107 0 -0.00877159 0.999962 0 0 1 0 
0 1 0 0 1 0 0 1 0 
0 1 0 0 1 0 0 1 0 
0.00877159 0.999962 0 -0.00877159 0 0.999962 0 -0.00877159 0.999962 
0 -0.00877159 0.999962 0 -0.00877159 0.999962 0 -0.00877159 0.999962 
0 -0.00877159 0.999962 0.00877125 -0.00877125 0.999923 -0.00877125 0.00877125 0.999923 
0 -0.703985 0.710215 0 -0.703985 0.710215 0 -0.703985 0.710215 
0 -0.703985 0.710215 0.00877159 0 0.999962 -0.00622983 -0.710201 0.703971 
-0.707107 -0.707107 0 0 -0.710215 0.703985 0 -0.710215 0.703985 
0.00620257 -0.707093 0.707093 0.703985 0 0.710215 0.707093 -0.00620257 0.707093 
0.00877125 -0.00877125 0.999923 -0.707107 -0.707107 0 -0.579038 -0.579038 -0.573959 
0.575647 -0.575647 0.580741 0.580741 -0.575647 0.575647 0.00622983 -0.703971 0.710201 
-0.579038 -0.579038 -0.573959 -0.999962 -0.00877159 0 0.575647 -0.580741 0.575647 