# vtk DataFile Version 3.0
vtk output
ASCII
DATASET POLYDATA
POINTS 1674 float
49 106 73.0127 49 105.013 74 48.0127 106 74 
50 106 73.0127 50 105.013 74 50.9873 106 74 
49 107 73.0127 48.0127 107 74 49.9873 107 74 
50 106.987 74 49 107.987 74 43 114 73.0127 
43 113.013 74 42.0127 114 74 44 114 73.0127 
44 113.013 74 44.9873 114 74 43 115 73.0127 
42.0127 115 74 43.9873 115 74 44 114.987 74 
43 115.987 74 50 105 74.0127 50 104.013 75 
49.0127 105 75 51 105 74.0127 51 104.013 75 
52 105 74.0127 52 104.013 75 52.9873 105 75 
49 105.013 75 48.0127 106 75 51 105.987 75 
50.9873 106 75 52 105.987 75 48 107 74.0127 
48 106.013 75 47.0127 107 75 50 107 74.0127 
50.9873 107 75 48 108 74.0127 47.0127 108 75 
49 107.987 75 48.9873 108 75 50 107.987 75 
47 109 74.0127 47 108.013 75 46.0127 109 75 
48 108.987 75 47.9873 109 75 46 110 74.0127 
46 109.013 75 45.0127 110 75 47 109.987 75 
46.9873 110 75 45 111 74.0127 45 110.013 75 
44.0127 111 75 46 110.987 75 45.9873 111 75 
44 112 74.0127 44 111.013 75 43.0127 112 75 
45 111.987 75 44.9873 112 75 43 113 74.0127 
43 112.013 75 42.0127 113 75 44 113 74.0127 
44.9873 113 75 42 114 74.0127 42 113.013 75 
41.0127 114 75 44.9873 114 75 42 114.987 75 
42.0127 115 75 43.9873 115 75 44 114.987 75 
43 115.987 75 52 101 75.0127 52 100.013 76 
51.0127 101 76 52.9873 101 76 51 102 75.0127 
51 101.013 76 50.0127 102 76 52 102 75.0127 
53 101.013 76 53 102 75.0127 54 102 75.0127 
54 101.013 76 55 102 75.0127 55 101.013 76 
56 102 75.0127 56 101.013 76 56.9873 102 76 
51 103 75.0127 50.0127 103 76 52 103 75.0127 
53 103 75.0127 54 103 75.0127 55 103 75.0127 
55.9873 103 76 56 102.987 76 51 104 75.0127 
50.0127 104 76 52 104 75.0127 53 104 75.0127 
54 104 75.0127 54.9873 104 76 55 103.987 76 
50 104.013 76 49.0127 105 76 53 105 75.0127 
53.9873 105 76 54 104.987 76 49 105.013 76 
48.0127 106 76 51 106 75.0127 52 106 75.0127 
52.9873 106 76 53 105.987 76 48 106.013 76 
47.0127 107 76 51 107 75.0127 51.9873 107 76 
52 106.987 76 47 108 75.0127 47 107.013 76 
46.0127 108 76 49 108 75.0127 50 108 75.0127 
50.9873 108 76 51 107.987 76 46 109 75.0127 
46 108.013 76 45.0127 109 76 48 109 75.0127 
49 109 75.0127 49.9873 109 76 50 108.987 76 
45 110 75.0127 45 109.013 76 44.0127 110 76 
47 110 75.0127 48 110 75.0127 48.9873 110 76 
49 109.987 76 44 111 75.0127 44 110.013 76 
43.0127 111 76 46 111 75.0127 47 111 75.0127 
47.9873 111 76 48 110.987 76 43 112 75.0127 
43 111.013 76 42.0127 112 76 45 112 75.0127 
46 112 75.0127 46.9873 112 76 47 111.987 76 
42 113 75.0127 42 112.013 76 41.0127 113 76 
45 113 75.0127 45.9873 113 76 46 112.987 76 
41 114 75.0127 41 113.013 76 40.0127 114 76 
44.9873 114 76 45 113.987 76 41 115 75.0127 
40.0127 115 76 42 115 75.0127 43.9873 115 76 
44 114.987 76 41 115.987 76 42 115.987 76 
43 115.987 76 52 100.013 77 51.0127 101 77 
53 101 76.0127 53 100.013 77 54 101 76.0127 
54 100.013 77 55 101 76.0127 55 100.013 77 
56 101 76.0127 56 100.013 77 56.9873 101 77 
50 102 76.0127 50 101.013 77 49.0127 102 77 
51 101.013 77 56.9873 102 77 50 103 76.0127 
49.0127 103 77 56 103 76.0127 56.9873 103 77 
50 104 76.0127 49.0127 104 77 54.9873 104 77 
55 103.987 77 56 103.987 77 48 105 76.0127 
48 104.013 77 47.0127 105 77 49 105 76.0127 
49 104.013 77 53.9873 105 77 54 104.987 77 
48 106 76.0127 47.0127 106 77 52.9873 106 77 
53 105.987 77 46 107 76.0127 46 106.013 77 
45.0127 107 77 47 107 76.0127 47 106.013 77 
51.9873 107 77 52 106.987 77 46 108 76.0127 
45.0127 108 77 50.9873 108 77 51 107.987 77 
44 109 76.0127 44 108.013 77 43.0127 109 77 
45 109 76.0127 45 108.013 77 49.9873 109 77 
50 108.987 77 44 110 76.0127 43.0127 110 77 
48.9873 110 77 49 109.987 77 42 111 76.0127 
42 110.013 77 41.0127 111 77 43 111 76.0127 
43 110.013 77 47.9873 111 77 48 110.987 77 
42 112 76.0127 41.0127 112 77 46.9873 112 77 
47 111.987 77 40 113 76.0127 40 112.013 77 
39.0127 113 77 41 113 76.0127 41 112.013 77 
45.9873 113 77 46 112.987 77 40 114 76.0127 
39.0127 114 77 44.9873 114 77 45 113.987 77 
40 115 76.0127 39.0127 115 77 43.9873 115 77 
44 114.987 77 40 115.987 77 41 115.987 77 
42 115.987 77 43 115.987 77 55 96 77.0127 
55 95.0127 78 54.0127 96 78 56 96 77.0127 
56 95.0127 78 56.9873 96 78 54 97 77.0127 
54 96.0127 78 53.0127 97 78 55 97 77.0127 
56 97 77.0127 56.9873 97 78 53 98 77.0127 
53 97.0127 78 52.0127 98 78 54 98 77.0127 
55 98 77.0127 56 98 77.0127 57 97.0127 78 
57 98 77.0127 58 98 77.0127 58 97.0127 78 
58.9873 98 78 53 99 77.0127 52.0127 99 78 
54 99 77.0127 55 99 77.0127 56 99 77.0127 
57 99 77.0127 58 99 77.0127 58.9873 99 78 
53 100 77.0127 52.0127 100 78 54 100 77.0127 
55 100 77.0127 56 100 77.0127 57 100 77.0127 
58 100 77.0127 58.9873 100 78 52 100.013 78 
51.0127 101 78 57 101 77.0127 58 101 77.0127 
58.9873 101 78 49 102 77.0127 49 101.013 78 
48.0127 102 78 50 101.013 78 51 101.013 78 
57 102 77.0127 58 102 77.0127 58.9873 102 78 
48 103 77.0127 48 102.013 78 47.0127 103 78 
49 103 77.0127 57 103 77.0127 57.9873 103 78 
58 102.987 78 47 104 77.0127 47 103.013 78 
46.0127 104 78 48 104 77.0127 49 104 77.0127 
55 104 77.0127 56 104 77.0127 56.9873 104 78 
57 103.987 78 46 105 77.0127 46 104.013 78 
45.0127 105 78 47 105 77.0127 54 105 77.0127 
55 105 77.0127 55.9873 105 78 56 104.987 78 
45 106 77.0127 45 105.013 78 44.0127 106 78 
46 106 77.0127 47 106 77.0127 52.9873 106 78 
53 105.987 78 54 105.987 78 55 105.987 78 
44 107 77.0127 44 106.013 78 43.0127 107 78 
45 107 77.0127 51.9873 107 78 52 106.987 78 
43 108 77.0127 43 107.013 78 42.0127 108 78 
44 108 77.0127 45 108 77.0127 50.9873 108 78 
51 107.987 78 42 109 77.0127 42 108.013 78 
41.0127 109 78 43 109 77.0127 49.9873 109 78 
50 108.987 78 41 110 77.0127 41 109.013 78 
40.0127 110 78 42 110 77.0127 43 110 77.0127 
48.9873 110 78 49 109.987 78 40 111 77.0127 
40 110.013 78 39.0127 111 78 41 111 77.0127 
47.9873 111 78 48 110.987 78 39 112 77.0127 
39 111.013 78 38.0127 112 78 40 112 77.0127 
41 112 77.0127 46.9873 112 78 47 111.987 78 
38 113 77.0127 38 112.013 78 37.0127 113 78 
39 113 77.0127 45.9873 113 78 46 112.987 78 
37 114 77.0127 37 113.013 78 36.0127 114 78 
38 114 77.0127 39 114 77.0127 44.9873 114 78 
45 113.987 78 37 115 77.0127 36.0127 115 78 
38 115 77.0127 39 115 77.0127 43.9873 115 78 
44 114.987 78 37 115.987 78 38 115.987 78 
38.0127 116 78 39 116 77.0127 40 116 77.0127 
41 116 77.0127 42 116 77.0127 42.9873 116 78 
43 115.987 78 39 117 77.0127 38.0127 117 78 
40 117 77.0127 41 117 77.0127 41.9873 117 78 
42 116.987 78 39 118 77.0127 38.0127 118 78 
40 118 77.0127 40.9873 118 78 41 117.987 78 
39 119 77.0127 38.0127 119 78 39.9873 119 78 
40 118.987 78 39 119.987 78 52 96 78.0127 
52 95.0127 79 51.0127 96 79 52.9873 96 79 
54 96 78.0127 54 95.0127 79 53.0127 96 79 
55 95.0127 79 56 95.0127 79 56.9873 96 79 
52 97 78.0127 51.0127 97 79 53 96.0127 79 
53 97 78.0127 56.9873 97 79 52 98 78.0127 
51.0127 98 79 57 97.0127 79 58 97.0127 79 
58.9873 98 79 52 99 78.0127 51.0127 99 79 
58.9873 99 79 52 100 78.0127 51.0127 100 79 
58.9873 100 79 50 101 78.0127 50 100.013 79 
49.0127 101 79 51 101 78.0127 51 100.013 79 
58 101 78.9873 57.9873 101 79 58 100.987 79 
49 101.013 79 48.0127 102 79 58 102 78.9873 
57.9873 102 79 48 102.013 79 47.0127 103 79 
57 103 78.9873 56.9873 103 79 57 102.987 79 
47 103.013 79 46.0127 104 79 56.9873 104 79 
46 104.013 79 45.0127 105 79 55.9873 105 79 
56 104.987 79 45 105.013 79 44.0127 106 79 
52.9873 106 79 53 105.987 79 54 105.987 79 
55 105.987 79 44 106.013 79 43.0127 107 79 
52 107 78.0127 52.9873 107 79 42 108 78.0127 
42 107.013 79 41.0127 108 79 43 107.013 79 
50.9873 108 79 51 107.987 79 52 107.987 79 
40 109 78.0127 40 108.013 79 39.0127 109 79 
41 109 78.0127 41 108.013 79 50 109 78.0127 
50.9873 109 79 40 110 78.0127 39.0127 110 79 
48.9873 110 79 49 109.987 79 50 109.987 79 
38 111 78.0127 38 110.013 79 37.0127 111 79 
39 111 78.0127 39 110.013 79 47.9873 111 79 
48 110.987 79 38 112 78.0127 37.0127 112 79 
46.9873 112 79 47 111.987 79 36 113 78.0127 
36 112.013 79 35.0127 113 79 37 113 78.0127 
37 112.013 79 45.9873 113 79 46 112.987 79 
36 114 78.0127 35.0127 114 79 44.9873 114 79 
45 113.987 79 36 115 78.0127 35.0127 115 79 
43.9873 115 79 44 114.987 79 36 115.987 79 
37 115.987 79 38 116 78.0127 37.0127 116 79 
42.9873 116 79 43 115.987 79 38 117 78.0127 
37.0127 117 79 41.9873 117 79 42 116.987 79 
38 117.987 79 38.0127 118 79 40 118 78.9873 
39.9873 118 79 40 117.987 79 41 117.987 79 
39 118.987 79 39 119 78.9873 51 96 79.0127 
51 95.0127 80 50.0127 96 80 52 95.0127 80 
53 96 79.0127 53 95.0127 80 54 95.0127 80 
55 95.0127 80 56 95.0127 80 56.9873 96 80 
50 97 79.0127 50 96.0127 80 49.0127 97 80 
51 97 79.0127 56.9873 97 80 50 97.9873 80 
50.0127 98 80 51 98 79.0127 57 97.0127 80 
58 97.0127 80 58.9873 98 80 51 99 79.0127 
50.0127 99 80 58.9873 99 80 51 100 79.0127 
50.0127 100 80 58.9873 100 80 50 100.013 80 
49.0127 101 80 57.9873 101 80 58 100.987 80 
49 101.013 80 48.0127 102 80 57 102 79.9873 
56.9873 102 80 57 101.987 80 48 102.013 80 
47.0127 103 80 56.9873 103 80 47 103.013 80 
46.0127 104 80 56.9873 104 80 46 104.013 80 
45.0127 105 80 55.9873 105 80 56 104.987 80 
45 105.013 80 44.0127 106 80 53 106 79.0127 
54 106 79.0127 54.9873 106 80 55 105.987 80 
44 106.013 80 43.0127 107 80 53 107 79.0127 
53.9873 107 80 54 106.987 80 39 108 79.0127 
39 107.013 80 38.0127 108 80 40 108 79.0127 
40 107.013 80 41 108 79.0127 41 107.013 80 
42 107.013 80 43 107.013 80 51 108 79.0127 
52 108 79.0127 52.9873 108 80 53 107.987 80 
38 109 79.0127 38 108.013 80 37.0127 109 80 
39 109 79.0127 51 109 79.0127 51.9873 109 80 
52 108.987 80 35 110 79.0127 35 109.013 80 
34.0127 110 80 36 110 79.0127 36 109.013 80 
37 110 79.0127 37 109.013 80 38 110 79.0127 
39 110 79.0127 49 110 79.0127 50 110 79.0127 
50.9873 110 80 51 109.987 80 34 111 79.0127 
34 110.013 80 33.0127 111 80 35 111 79.0127 
36 111 79.0127 37 111 79.0127 48 111 79.0127 
49 111 79.0127 49.9873 111 80 50 110.987 80 
29 112 79.0127 29 111.013 80 28.0127 112 80 
[...]
POINT_DATA 1674
SCALARS scalars float
LOOKUP_TABLE default
1 1 1 1 1 1 1 1 1 
1 1 1 1 1 1 1 1 1 
1 1 1 1 1 1 1 1 1 
1 1 1 1 1 1 1 1 1 
1 1 1 1 1 1 1 1 1 
1 1 1 1 1 1 1 1 1 
1 1 1 1 1 1 1 1 1 
1 1 1 1 1 1 1 1 1 
1 1 1 1 1 1 1 1 1 
1 1 1 1 1 1 1 1 1 
1 1 1 1 1 1 1 1 1 
1 1 1 1 1 1 1 1 1 
1 1 1 1 1 1 1 1 1 
1 1 1 1 1 1 1 1 1 
1 1 1 1 1 1 1 1 1 
1 1 1 1 1 1 1 1 1 
1 1 1 1 1 1 1 1 1 
1 1 1 1 1 1 1 1 1 
1 1 1 1 1 1 1 1 1 
1 1 1 1 1 1 1 1 1 
1 1 1 1 1 1 1 1 1 
1 1 1 1 1 1 1 1 1 
1 1 1 1 1 1 1 1 1 
1 1 1 1 1 1 1 1 1 
1 1 1 1 1 1 1 1 1 
1 1 1 1 1 1 1 1 1 
1 1 1 1 1 1 1 1 1 
1 1 1 1 1 1 1 1 1 
1 1 1 1 1 1 1 1 1 
1 1 1 1 1 1 1 1 1 
1 1 1 1 1 1 1 1 1 
1 1 1 1 1 1 1 1 1 
1 1 1 1 1 1 1 1 1 
1 1 1 1 1 1 1 1 1 
1 1 1 1 1 1 1 1 1 
1 1 1 1 1 1 1 1 1 
1 1 1 1 1 1 1 1 1 
1 1 1 1 1 1 1 1 1 
1 1 1 1 1 1 1 1 1 
1 1 1 1 1 1 1 1 1 
1 1 1 1 1 1 1 1 1 
1 1 1 1 1 1 1 1 1 
1 1 1 1 1 1 1 1 1 
1 1 1 1 1 1 1 1 1 
1 1 1 1 1 1 1 1 1 
1 1 1 1 1 1 1 1 1 
1 1 1 1 1 1 1 1 1 
1 1 1 1 1 1 1 1 1 
1 1 1 1 1 1 1 1 1 
1 1 1 1 1 1 1 1 1 
1 1 1 1 1 1 1 1 1 
1 1 1 1 1 1 1 1 1 
1 1 1 1 1 1 1 1 1 
1 1 1 1 1 1 1 1 1 
1 1 1 1 1 1 1 1 1 
1 1 1 1 1 1 1 1 1 
1 1 1 1 1 1 1 1 1 
1 1 1 1 1 1 1 1 1 
1 1 1 1 1 1 1 1 1 
1 1 1 1 1 1 1 1 1 
1 1 1 1 1 1 1 1 1 
1 1 1 1 1 1 1 1 1 
1 1 1 1 1 1 1 1 1 
1 1 1 1 1 1 1 1 1 
1 1 1 1 1 1 1 1 1 
1 1 1 1 1 1 1 1 1 
1 1 1 1 1 1 1 1 1 
1 1 1 1 1 1 1 1 1 
1 1 1 1 1 1 1 1 1 
1 1 1 1 1 1 1 1 1 
1 1 1 1 1 1 1 1 1 
1 1 1 1 1 1 1 1 1 
1 1 1 1 1 1 1 1 1 
1 1 1 1 1 1 1 1 1 
1 1 1 1 1 1 1 1 1 
1 1 1 1 1 1 1 1 1 
1 1 1 1 1 1 1 1 1 
1 1 1 1 1 1 1 1 1 
1 1 1 1 1 1 1 1 1 
1 1 1 1 1 1 1 1 1 
1 1 1 1 1 1 1 1 1 
1 1 1 1 1 1 1 1 1 
1 1 1 1 1 1 1 1 1 
1 1 1 1 1 1 1 1 1 
1 1 1 1 1 1 1 1 1 
1 1 1 1 1 1 1 1 1 
1 1 1 1 1 1 1 1 1 
1 1 1 1 1 1 1 1 1 
1 1 1 1 1 1 1 1 1 
1 1 1 1 1 1 1 1 1 
1 1 1 1 1 1 1 1 1 
1 1 1 1 1 1 1 1 1 
1 1 1 1 1 1 1 1 1 
1 1 1 1 1 1 1 1 1 
1 1 1 1 1 1 1 1 1 
1 1 1 1 1 1 1 1 1 
1 1 1 1 1 1 1 1 1 
1 1 1 1 1 1 1 1 1 
1 1 1 1 1 1 1 1 1 
1 1 1 1 1 1 1 1 1 
1 1 1 1 1 1 1 1 1 
1 1 1 1 1 1 1 1 1 
1 1 1 1 1 1 1 1 1 
1 1 1 1 1 1 1 1 1 
1 1 1 1 1 1 1 1 1 
1 1 1 1 1 1 1 1 1 
1 1 1 1 1 1 1 1 1 
1 1 1 1 1 1 1 1 1 
1 1 1 1 1 1 1 1 1 
1 1 1 1 1 1 1 1 1 
1 1 1 1 1 1 1 1 1 
1 1 1 1 1 1 1 1 1 
1 1 1 1 1 1 1 1 1 
1 1 1 1 1 1 1 1 1 
1 1 1 1 1 1 1 1 1 
1 1 1 1 1 1 1 1 1 
1 1 1 1 1 1 1 1 1 
1 1 1 1 1 1 1 1 1 
1 1 1 1 1 1 1 1 1 
1 1 1 1 1 1 1 1 1 
1 1 1 1 1 1 1 1 1 
1 1 1 1 1 1 1 1 1 
1 1 1 1 1 1 1 1 1 
1 1 1 1 1 1 1 1 1 
1 1 1 1 1 1 1 1 1 
1 1 1 1 1 1 1 1 1 
1 1 1 1 1 1 1 1 1 
1 1 1 1 1 1 1 1 1 
1 1 1 1 1 1 1 1 1 
1 1 1 1 1 1 1 1 1 
1 1 1 1 1 1 1 1 1 
1 1 1 1 1 1 1 1 1 
1 1 1 1 1 1 1 1 1 
1 1 1 1 1 1 1 1 1 
1 1 1 1 1 1 1 1 1 
1 1 1 1 1 1 1 1 1 
1 1 1 1 1 1 1 1 1 
1 1 1 1 1 1 1 1 1 
1 1 1 1 1 1 1 1 1 
1 1 1 1 1 1 1 1 1 
1 1 1 1 1 1 1 1 1 
1 1 1 1 1 1 1 1 1 
1 1 1 1 1 1 1 1 1 
1 1 1 1 1 1 1 1 1 
1 1 1 1 1 1 1 1 1 
1 1 1 1 1 1 1 1 1 
1 1 1 1 1 1 1 1 1 
1 1 1 1 1 1 1 1 1 
1 1 1 1 1 1 1 1 1 
1 1 1 1 1 1 1 1 1 
1 1 1 1 1 1 1 1 1 
1 1 1 1 1 1 1 1 1 
1 1 1 1 1 1 1 1 1 
1 1 1 1 1 1 1 1 1 
1 1 1 1 1 1 1 1 1 
1 1 1 1 1 1 1 1 1 
1 1 1 1 1 1 1 1 1 
1 1 1 1 1 1 1 1 1 
1 1 1 1 1 1 1 1 1 
1 1 1 1 1 1 1 1 1 
1 1 1 1 1 1 1 1 1 
1 1 1 1 1 1 1 1 1 
1 1 1 1 1 1 1 1 1 
1 1 1 1 1 1 1 1 1 
1 1 1 1 1 1 1 1 1 
1 1 1 1 1 1 1 1 1 
1 1 1 1 1 1 1 1 1 
1 1 1 1 1 1 1 1 1 
1 1 1 1 1 1 1 1 1 
1 1 1 1 1 1 1 1 1 
1 1 1 1 1 1 1 1 1 
1 1 1 1 1 1 1 1 1 
1 1 1 1 1 1 1 1 1 
1 1 1 1 1 1 1 1 1 
1 1 1 1 1 1 1 1 1 
1 1 1 1 1 1 1 1 1 
1 1 1 1 1 1 1 1 1 
1 1 1 1 1 1 1 1 1 
1 1 1 1 1 1 1 1 1 
1 1 1 1 1 1 1 1 1 
1 1 1 1 1 1 1 1 1 
1 1 1 1 1 1 1 1 1 
1 1 1 1 1 1 1 1 1 
1 1 1 1 1 1 1 1 1 
1 1 1 1 1 1 1 1 1 
1 1 1 1 1 1 1 1 1 

NORMALS normals float
-0.0126562 -0.0126562 -0.99984 -0.0126562 -0.99984 -0.0126562 -0.99984 -0.0126562 -0.0126562 
0.0126572 0 -0.99992 0.00900718 -0.70256 -0.711567 0.99992 0 -0.0126572 
0 0.0126572 -0.99992 -0.70256 0.00900718 -0.711567 0.572447 0.579786 -0.579786 
0.579786 0.572447 -0.579786 0 0.99992 -0.0126572 -0.0126562 -0.0126562 -0.99984 
-0.00895036 -0.707078 -0.707078 -0.707078 -0.00895036 -0.707078 0.0126572 0 -0.99992 
0.00900718 -0.70256 -0.711567 0.99992 0 -0.0126572 0 0.0126572 -0.99992 
-0.999836 0.0128184 -0.0128184 0.70256 0.711567 -0.00900718 0.711567 0.70256 -0.00900718 
0 0.99992 -0.0126572 -0.00895036 -0.707078 -0.707078 -0.0126562 -0.99984 -0.0126562 
-0.707078 -0.707078 -0.00895036 0 0 -1 0 -0.702589 -0.711596 
0.0126572 0 -0.99992 0.00900718 -0.70256 -0.711567 0.707107 0 -0.707107 
-0.707107 -0.707107 0 -0.707107 -0.707107 0 0.574883 0.574883 -0.582253 
0.582253 0.574883 -0.574883 0.00900718 0.70256 -0.711567 -0.707078 -0.00895036 -0.707078 
-0.707078 -0.707078 -0.00895036 -0.99984 -0.0126562 -0.0126562 0.57735 0.57735 -0.57735 
0.707078 0.00895036 -0.707078 0 0.0126572 -0.99992 -0.577319 -0.569917 -0.58472 
0.574883 0.582253 -0.574883 0.572447 0.579786 -0.579786 0.00895036 0.707078 -0.707078 
0 0 -1 -0.574883 -0.574883 -0.582253 -0.574883 -0.574883 -0.582253 
0.572447 0.579786 -0.579786 0.574883 0.574883 -0.582253 0 0 -1 
-0.574883 -0.574883 -0.582253 -0.574883 -0.574883 -0.582253 0.574883 0.574883 -0.582253 
0.574883 0.574883 -0.582253 0 0 -1 -0.574883 -0.574883 -0.582253 
-0.574883 -0.574883 -0.582253 0.574883 0.574883 -0.582253 0.574883 0.574883 -0.582253 
0 -0.0126572 -0.99992 -0.572447 -0.579786 -0.579786 -0.572447 -0.579786 -0.579786 
0.574883 0.574883 -0.582253 0.577319 0.569917 -0.58472 -0.00895036 -0.707078 -0.707078 
-0.57735 -0.57735 -0.57735 -0.57735 -0.57735 -0.57735 0.00900718 -0.70256 -0.711567 
0.707107 0 -0.707107 -0.707107 0 -0.707107 -0.579786 -0.572447 -0.579786 
-0.707107 0 -0.707107 0.99992 0.0126572 0 -0.579786 0.572447 -0.579786 
-0.574883 0.582253 -0.574883 0.702589 0.711596 0 0.707107 0.707107 0 
0 1 0 0 -0.0126572 -0.99992 0 -0.99992 -0.0126572 
-0.70256 -0.711567 -0.00900718 0.572447 -0.579786 -0.579786 -0.0126562 -0.0126562 -0.99984 
-0.707078 -0.707078 -0.00895036 -0.707078 -0.00895036 -0.707078 0 0 -1 
0.572447 -0.579786 -0.579786 0 -0.0126572 -0.99992 0 -0.0126572 -0.99992 
0 -0.707107 -0.707107 0 -0.0126572 -0.99992 0 -0.707107 -0.707107 
0.0126572 0 -0.99992 0.00900718 -0.70256 -0.711567 0.99992 0 -0.0126572 
-0.0126572 0 -0.99992 -0.707107 0 -0.707107 0 0 -1 
0 0 -1 0 0 -1 0.0126562 0.0126562 -0.99984 
0.57735 0.57735 -0.57735 0.579786 0.572447 -0.579786 -0.00900718 -0.70256 -0.711567 
-0.579786 -0.572447 -0.579786 0 -0.702589 -0.711596 0 0 -1 
0.0126562 0.0126562 -0.99984 0.707078 0.707078 -0.00895036 0.707078 0.707078 -0.00895036 
-0.579786 -0.579786 -0.572447 -0.579786 -0.579786 -0.572447 0.707078 0.00895036 -0.707078 
0.707078 0.707078 -0.00895036 0.707078 0.707078 -0.00895036 -0.579786 -0.579786 -0.572447 
-0.579786 -0.579786 -0.572447 0.574883 0.574883 -0.582253 0.00895036 0.707078 -0.707078 
0.707078 0.707078 -0.00895036 0.707078 0.707078 -0.00895036 -0.579786 -0.579786 -0.572447 
-0.579786 -0.579786 -0.572447 0.707078 0.00895036 -0.707078 0.707078 0.707078 -0.00895036 
0.707078 0.707078 -0.00895036 -0.57735 -0.57735 -0.57735 -0.57735 -0.57735 -0.57735 
-0.57735 -0.57735 -0.57735 0.574883 0.574883 -0.582253 0.00895036 0.707078 -0.707078 
0.707078 0.707078 -0.00895036 0.707078 0.707078 -0.00895036 -0.57735 -0.57735 -0.57735 
-0.57735 -0.57735 -0.57735 -0.57735 -0.57735 -0.57735 0.574883 0.574883 -0.582253 
0.0126562 0.0126562 -0.99984 0.707078 0.707078 -0.00895036 0.707078 0.707078 -0.00895036 
-0.57735 -0.57735 -0.57735 -0.57735 -0.57735 -0.57735 -0.57735 -0.57735 -0.57735 
0.574883 0.574883 -0.582253 0.0126562 0.0126562 -0.99984 0.707078 0.707078 -0.00895036 
0.707078 0.707078 -0.00895036 -0.57735 -0.57735 -0.57735 -0.57735 -0.57735 -0.57735 
-0.57735 -0.57735 -0.57735 0.574883 0.574883 -0.582253 0.0126562 0.0126562 -0.99984 
0.707078 0.707078 -0.00895036 0.707078 0.707078 -0.00895036 -0.57735 -0.57735 -0.57735 
-0.57735 -0.57735 -0.57735 -0.57735 -0.57735 -0.57735 0.574883 0.574883 -0.582253 
0.0126562 0.0126562 -0.99984 0.707078 0.707078 -0.00895036 0.707078 0.707078 -0.00895036 
-0.57735 -0.57735 -0.57735 -0.57735 -0.57735 -0.57735 -0.57735 -0.57735 -0.57735 
0.707078 0.00895036 -0.707078 0.707078 0.707078 -0.00895036 0.707078 0.707078 -0.00895036 
-0.707078 -0.00895036 -0.707078 -0.57735 -0.57735 -0.57735 -0.707078 -0.00895036 -0.707078 
0.707107 0.707107 0 0.707078 0.707078 -0.00895036 -0.0126562 0.0126562 -0.99984 
-0.707078 0.00895036 -0.707078 -0.572447 0.579786 -0.579786 0.707107 0.707107 0 
0.707107 0.707107 0 -0.0126562 0.99984 -0.0126562 0 0.99992 -0.0126572 
0.0126572 0.99992 0 -0.0126572 -0.99992 0 -0.707107 -0.707107 0 
0.572447 -0.579786 -0.579786 0 -0.707107 -0.707107 0 -0.707107 -0.707107 
0 -0.707107 -0.707107 0 -0.707107 -0.707107 0 -0.707107 -0.707107 
0.00895036 -0.707078 -0.707078 0.00895036 -0.707078 -0.707078 0.707078 -0.00895036 -0.707078 
-0.707078 -0.00895036 -0.707078 -0.0126562 -0.99984 -0.0126562 -0.707078 -0.00895036 -0.707078 
-0.702589 -0.711596 0 0.711596 0 -0.702589 -0.707107 0 -0.707107 
-0.707107 0 -0.707107 0.57735 0.57735 -0.57735 0.707078 0.00895036 -0.707078 
-0.579786 -0.572447 -0.579786 -0.579786 -0.572447 -0.579786 0.579786 0.579786 -0.572447 
0.574883 0.582253 -0.574883 0.00895036 0.707078 -0.707078 -0.0126562 -0.0126562 -0.99984 
-0.00895036 -0.707078 -0.707078 -0.707078 -0.00895036 -0.707078 -0.572447 -0.579786 -0.579786 
-0.572447 -0.579786 -0.579786 0.579786 0.579786 -0.572447 0.579786 0.579786 -0.572447 
-0.579786 -0.572447 -0.579786 -0.579786 -0.572447 -0.579786 0.707107 0.707107 0 
0.707107 0.707107 0 -0.0126562 -0.0126562 -0.99984 -0.00895036 -0.707078 -0.707078 
-0.707078 -0.00895036 -0.707078 -0.572447 -0.579786 -0.579786 -0.572447 -0.579786 -0.579786 
0.707107 0.707107 0 0.707107 0.707107 0 -0.579786 -0.572447 -0.579786 
-0.579786 -0.572447 -0.579786 0.707107 0.707107 0 0.707107 0.707107 0 
-0.0126562 -0.0126562 -0.99984 -0.00895036 -0.707078 -0.707078 -0.707078 -0.00895036 -0.707078 
-0.572447 -0.579786 -0.579786 -0.572447 -0.579786 -0.579786 0.707107 0.707107 0 
0.707107 0.707107 0 -0.579786 -0.572447 -0.579786 -0.579786 -0.572447 -0.579786 
0.707107 0.707107 0 0.707107 0.707107 0 -0.0126562 -0.0126562 -0.99984 
-0.00895036 -0.707078 -0.707078 -0.707078 -0.00895036 -0.707078 -0.572447 -0.579786 -0.579786 
-0.572447 -0.579786 -0.579786 0.707107 0.707107 0 0.707107 0.707107 0 
-0.579786 -0.572447 -0.579786 -0.579786 -0.572447 -0.579786 0.707107 0.707107 0 
0.707107 0.707107 0 -0.0126562 -0.0126562 -0.99984 -0.00895036 -0.707078 -0.707078 
-0.707078 -0.00895036 -0.707078 -0.572447 -0.579786 -0.579786 -0.572447 -0.579786 -0.579786 
0.707107 0.707107 0 0.707107 0.707107 0 -0.707107 0 -0.707107 
-0.707107 0 -0.707107 0.707107 0.707107 0 0.707107 0.707107 0 
-0.707078 0.00895036 -0.707078 -0.707078 0.00895036 -0.707078 0.707107 0.707107 0 
0.707107 0.707107 0 -0.00895036 0.707078 -0.707078 0 0.711596 -0.702589 
0 0.711596 -0.702589 0.0126572 0.99992 0 -0.0126562 -0.0126562 -0.99984 
-0.0126562 -0.99984 -0.0126562 -0.57735 -0.57735 -0.57735 0.0126562 -0.0126562 -0.99984 
0.0126562 -0.99984 -0.0126562 0.99984 -0.0126562 -0.0126562 -0.0126562 -0.0126562 -0.99984 
-0.57735 -0.57735 -0.57735 -0.57735 -0.57735 -0.57735 0 0 -1 
0.0126572 0 -0.99992 0.711567 -0.70256 -0.00900718 -0.0126562 -0.0126562 -0.99984 
-0.57735 -0.57735 -0.57735 -0.707078 -0.00895036 -0.707078 0 0 -1 
0 0 -1 0 0 -1 0.70256 -0.711567 -0.00900718 
0 -0.0126572 -0.99992 0.0126562 -0.0126562 -0.99984 0.0126562 -0.99984 -0.0126562 
0.99984 -0.0126562 -0.0126562 -0.0126572 0 -0.99992 -0.707107 0 -0.707107 
0 0 -1 0 0 -1 0 0 -1 
0 0 -1 0.0126572 0 -0.99992 0.99992 0 -0.0126572 
-0.00900718 -0.70256 -0.711567 -0.579786 -0.572447 -0.579786 0 -0.702589 -0.711596 
0 -0.702589 -0.711596 0 -0.702589 -0.711596 0 0 -1 
0.0126572 0 -0.99992 0.99992 0 -0.0126572 -0.579786 -0.579786 -0.572447 
-0.579786 -0.579786 -0.572447 0.702589 0 -0.711596 0.0128195 0 -0.999918 
1 0 0 -0.707078 -0.00895036 -0.707078 -0.0126562 -0.99984 -0.0126562 
-0.707078 -0.707078 -0.00895036 0 -0.711596 -0.702589 -0.574883 -0.582253 -0.574883 
0.702589 0 -0.711596 0.0128184 0.0128184 -0.999836 0.99992 0.0126572 0 
-0.0126562 -0.0126562 -0.99984 -0.707078 -0.707078 -0.00895036 -0.707078 -0.707078 -0.00895036 
-0.702589 0 -0.711596 0.711567 0.00900718 -0.70256 0.707107 0.707107 0 
0.707107 0.707107 0 -0.0126562 -0.0126562 -0.99984 -0.707078 -0.707078 -0.00895036 
-0.707078 -0.707078 -0.00895036 0 -0.702589 -0.711596 -0.574883 -0.574883 -0.582253 
0.574883 0.574883 -0.582253 0.00895036 0.707078 -0.707078 0.707078 0.707078 -0.00895036 
0.707107 0.707107 0 -0.0126562 -0.0126562 -0.99984 -0.707078 -0.707078 -0.00895036 
-0.707078 -0.707078 -0.00895036 -0.702589 0 -0.711596 0.572447 0.579786 -0.579786 
0.0126562 0.0126562 -0.99984 0.707078 0.707078 -0.00895036 0.707078 0.707078 -0.00895036 
-0.0126562 -0.0126562 -0.99984 -0.707078 -0.707078 -0.00895036 -0.707078 -0.707078 -0.00895036 
0 -0.702589 -0.711596 -0.574883 -0.574883 -0.582253 0.707107 0.707107 0 
0.702589 0.711596 0 0 0.99992 -0.0126572 0.0126562 0.99984 -0.0126562 
-0.0126562 -0.0126562 -0.99984 -0.707078 -0.707078 -0.00895036 -0.707078 -0.707078 -0.00895036 
-0.702589 0 -0.711596 0.579786 0.579786 -0.572447 0.579786 0.579786 -0.572447 
-0.0126562 -0.0126562 -0.99984 -0.707078 -0.707078 -0.00895036 -0.57735 -0.57735 -0.57735 
0 -0.702589 -0.711596 -0.574883 -0.574883 -0.582253 0.707107 0.707107 0 
0.707107 0.707107 0 -0.0126562 -0.0126562 -0.99984 -0.57735 -0.57735 -0.57735 
-0.57735 -0.57735 -0.57735 -0.702589 0 -0.711596 0.579786 0.579786 -0.572447 
0.579786 0.579786 -0.572447 -0.0126562 -0.0126562 -0.99984 -0.57735 -0.57735 -0.57735 
-0.57735 -0.57735 -0.57735 0 -0.702589 -0.711596 -0.574883 -0.574883 -0.582253 
0.707107 0.707107 0 0.707107 0.707107 0 -0.0126562 -0.0126562 -0.99984 
-0.57735 -0.57735 -0.57735 -0.57735 -0.57735 -0.57735 -0.702589 0 -0.711596 
0.707107 0.707107 0 0.707107 0.707107 0 -0.0126562 -0.0126562 -0.99984 
-0.57735 -0.57735 -0.57735 -0.57735 -0.57735 -0.57735 0 -0.702589 -0.711596 
-0.574883 -0.574883 -0.582253 0.707107 0.707107 0 0.707107 0.707107 0 
-0.0126562 -0.0126562 -0.99984 -0.57735 -0.57735 -0.57735 -0.57735 -0.57735 -0.57735 
-0.702589 0 -0.711596 0.707107 0.707107 0 0.707107 0.707107 0 
-0.0126562 -0.0126562 -0.99984 -0.57735 -0.57735 -0.57735 -0.707078 -0.00895036 -0.707078 
0 0 -1 -0.702589 0 -0.711596 0.707107 0.707107 0 
0.707107 0.707107 0 -0.0126562 0.0126562 -0.99984 -0.707078 0.00895036 -0.707078 
0 0.0126572 -0.99992 -0.702589 0 -0.711596 0.707107 0.707107 0 
0.707107 0.707107 0 -0.0126562 0.99984 -0.0126562 -0.572447 0.579786 -0.579786 
-0.579786 0.572447 -0.579786 -0.0126572 0 -0.99992 0 0.702589 -0.711596 
0 0.702589 -0.711596 0.00895036 0.707078 -0.707078 0.707078 0.707078 -0.00895036 
0.707107 0.707107 0 -0.0126572 0 -0.99992 -0.707107 0 -0.707107 
0 0 -1 0.0126562 0.0126562 -0.99984 0.707078 0.707078 -0.00895036 
0.707078 0.707078 -0.00895036 -0.0126572 0 -0.99992 -0.99992 0 -0.0126572 
0.0128184 0.0128184 -0.999836 0.707107 0.707107 0 0.707078 0.707078 -0.00895036 
0 0.0128195 -0.999918 -0.999918 0.0128195 0 0.702589 0.711596 0 
0.707107 0.707107 0 0 1 0 0 -0.0126572 -0.99992 
0 -0.99992 -0.0126572 -0.70256 -0.00900718 -0.711567 0 -0.707107 -0.707107 
-0.57735 -0.57735 -0.57735 -0.0126562 -0.99984 -0.0126562 -0.00895036 -0.707078 -0.707078 
0 -1 0 0.0126572 -0.99992 0 0.99992 -0.0126572 0 
-0.0126572 0 -0.99992 -0.707107 0 -0.707107 0 -0.707107 -0.707107 
-0.572447 -0.579786 -0.579786 0.711596 -0.702589 0 -0.707107 0 -0.707107 
-0.707107 0 -0.707107 0.702589 -0.711596 0 0.0126572 -0.99992 0 
0.99992 -0.0126572 0 -0.707107 0 -0.707107 -0.707107 0 -0.707107 
1 0 0 -0.579786 -0.572447 -0.579786 -0.579786 -0.572447 -0.579786 
0.99992 0.0126572 0 -0.00895036 -0.707078 -0.707078 -0.0126562 -0.99984 -0.0126562 
-0.707078 -0.707078 -0.00895036 -0.572447 -0.579786 -0.579786 -0.572447 -0.579786 -0.579786 
0.582253 0.574883 0.574883 0.582253 0.574883 0.574883 0.579786 0.579786 0.572447 
-0.707107 -0.707107 0 -0.707107 -0.707107 0 0.711567 0.00900718 0.70256 
0.707078 0.00895036 0.707078 -0.707107 -0.707107 0 -0.707107 -0.707107 0 
0.579786 0.579786 0.572447 0.582253 0.574883 0.574883 0.57735 0.57735 0.57735 
-0.707107 -0.707107 0 -0.707107 -0.707107 0 0.99992 0.0126572 0 
-0.707107 -0.707107 0 -0.707107 -0.707107 0 0.707107 0.707107 0 
0.707107 0.707107 0 -0.707107 -0.707107 0 -0.707107 -0.707107 0 
0.582253 0.574883 -0.574883 0.574883 0.582253 -0.574883 0 0.711596 -0.702589 
0.0126572 0.99992 0 -0.707107 -0.707107 0 -0.707107 -0.707107 0 
0.57735 0.57735 -0.57735 0.707078 0.00895036 -0.707078 -0.57735 -0.57735 -0.57735 
-0.0126562 -0.99984 -0.0126562 -0.57735 -0.57735 -0.57735 -0.702589 -0.711596 0 
0.582253 0.574883 -0.574883 0.574883 0.582253 -0.574883 0.00895036 0.707078 -0.707078 
-0.0126562 -0.0126562 -0.99984 -0.00895036 -0.707078 -0.707078 -0.707078 -0.00895036 -0.707078 
-0.572447 -0.579786 -0.579786 -0.572447 -0.579786 -0.579786 0.57735 0.57735 -0.57735 
0.707078 0.00895036 -0.707078 -0.579786 -0.572447 -0.579786 -0.579786 -0.572447 -0.579786 
0.579786 0.579786 -0.572447 0.574883 0.582253 -0.574883 0.00895036 0.707078 -0.707078 
-0.0126562 -0.0126562 -0.99984 -0.00895036 -0.707078 -0.707078 -0.707078 -0.00895036 -0.707078 
-0.572447 -0.579786 -0.579786 -0.572447 -0.579786 -0.579786 0.579786 0.579786 -0.572447 
0.579786 0.579786 -0.572447 -0.579786 -0.572447 -0.579786 -0.579786 -0.572447 -0.579786 
0.707107 0.707107 0 0.707107 0.707107 0 -0.0126562 -0.0126562 -0.99984 
-0.00895036 -0.707078 -0.707078 -0.707078 -0.00895036 -0.707078 -0.572447 -0.579786 -0.579786 
-0.572447 -0.579786 -0.579786 0.707107 0.707107 0 0.707107 0.707107 0 
-0.707107 0 -0.707107 -0.707107 0 -0.707107 0.707107 0.707107 0 
0.707107 0.707107 0 -0.707078 0.00895036 -0.707078 -0.707078 0.00895036 -0.707078 
0.707107 0.707107 0 0.707107 0.707107 0 -0.00895036 0.707078 -0.707078 
-0.574883 0.582253 -0.574883 -0.579786 0.572447 -0.579786 -0.579786 0.572447 -0.579786 
0.707107 0.707107 0 0.707107 0.707107 0 -0.707078 0.00895036 -0.707078 
-0.707078 0.00895036 -0.707078 0.707107 0.707107 0 0.707107 0.707107 0 
-0.707078 0.707078 -0.00895036 -0.70256 0.711567 0.00900718 0.579786 0.579786 0.572447 
0.572447 0.579786 0.579786 0.574883 0.582253 0.574883 0.0126572 0.99992 0 
0 0.707107 0.707107 0 0.711596 0.702589 -0.707078 -0.00895036 -0.707078 
-0.00895036 -0.707078 -0.707078 -0.57735 -0.57735 -0.57735 0 -0.711596 -0.702589 
0 -0.707107 -0.707107 0 -0.707107 -0.707107 0 -0.711596 -0.702589 
0 -0.711596 -0.702589 0.0126572 -0.99992 0 0.99992 -0.0126572 0 
-0.0126572 0 -0.99992 -0.579786 -0.572447 -0.579786 -0.99992 0 -0.0126572 
-0.702589 0 -0.711596 0.582253 -0.574883 -0.574883 -0.579786 0.572447 -0.579786 
-0.579786 0.572447 -0.579786 -0.707107 0 -0.707107 0.574883 -0.582253 -0.574883 
0.0126572 -0.99992 0 0.99992 -0.0126572 0 -0.707107 0 -0.707107 
-0.707107 0 -0.707107 1 0 0 -0.579786 -0.572447 -0.579786 
-0.579786 -0.572447 -0.579786 0.99992 0.0126572 0 -0.579786 -0.579786 -0.572447 
-0.579786 -0.579786 -0.572447 0.707107 0.707107 0 0.707107 0.707107 0 
-0.579786 -0.579786 -0.572447 -0.579786 -0.579786 -0.572447 0.57735 0.57735 0.57735 
0.582253 0.574883 0.574883 0.579786 0.579786 0.572447 -0.579786 -0.579786 -0.572447 
-0.579786 -0.579786 -0.572447 0.99992 0 0.0126572 -0.579786 -0.579786 -0.572447 
-0.579786 -0.579786 -0.572447 0.99984 0.0126562 0.0126562 -0.579786 -0.579786 -0.572447 
-0.579786 -0.579786 -0.572447 0.707078 0.707078 0.00895036 0.707078 0.707078 0.00895036 
-0.579786 -0.579786 -0.572447 -0.579786 -0.579786 -0.572447 0.574883 0.574883 -0.582253 
0.00900718 0.711567 -0.70256 0.707107 0.707107 0 0.707078 0.707078 0.00895036 
-0.579786 -0.579786 -0.572447 -0.579786 -0.579786 -0.572447 0.711567 0.00900718 -0.70256 
0.707107 0.707107 0 0.707107 0.707107 0 -0.0126562 -0.0126562 -0.99984 
-0.0126562 -0.99984 -0.0126562 -0.707078 -0.707078 -0.00895036 0 -0.707107 -0.707107 
0 -0.99992 -0.0126572 -0.572447 -0.579786 -0.579786 0 -0.99992 -0.0126572 
0 -0.711596 -0.702589 -0.574883 -0.582253 -0.574883 0.574883 0.574883 -0.582253 