# vtk DataFile Version 3.0
vtk output
ASCII
DATASET POLYDATA
POINTS 6318 float
102 127 116.05 102 126.05 117 101.05 127 117 
103 127 116.05 103 126.05 117 103.95 127 117 
102 128 116.05 101.05 128 117 102.95 128 117 
103 127.95 117 102 129 116.05 101.05 129 117 
102.95 129 117 102 129.95 117 93 145 116.05 
93 144.05 117 92.05 145 117 94 145 116.05 
94 144.05 117 95 145 116.05 95 144.05 117 
96 145 116.05 96 144.05 117 97 145 116.05 
97 144.05 117 98 145 116.05 98 144.05 117 
98.95 145 117 93 145.95 117 94 145.95 117 
95 145.95 117 96 145.95 117 97 145.95 117 
97.05 146 117 98 146 116.05 98.95 146 117 
98 147 116.05 97.05 147 117 99 146.05 117 
99 147 116.05 100 147 116.05 100 146.05 117 
101 147 116.05 101 146.05 117 101.95 147 117 
98 147.95 117 99 147.95 117 100 147.95 117 
101 147.95 117 99 118 117.05 99 117.05 118 
98.05 118 118 100 118 117.05 100 117.05 118 
101 118 117.05 101 117.05 118 102 118 117.05 
102 117.05 118 102.95 118 118 98 119 117.05 
98 118.05 118 97.05 119 118 99 119 117.05 
100 119 117.05 101 119 117.05 102 119 117.05 
102.95 119 118 93 120 117.05 93 119.05 118 
92.05 120 118 94 120 117.05 94 119.05 118 
95 120 117.05 95 119.05 118 96 120 117.05 
96 119.05 118 97 120 117.05 97 119.05 118 
98 120 117.05 99 120 117.05 100 120 117.05 
101 120 117.05 102 120 117.05 103 119.05 118 
103 120 117.05 104 120 117.05 104 119.05 118 
104.95 120 118 92 121 117.05 92 120.05 118 
91.05 121 118 93 121 117.05 94 121 117.05 
95 121 117.05 96 121 117.05 97 121 117.05 
98 121 117.05 99 121 117.05 100 121 117.05 
101 121 117.05 102 121 117.05 103 121 117.05 
104 121 117.05 104.95 121 118 91 122 117.05 
91 121.05 118 90.05 122 118 92 122 117.05 
93 122 117.05 94 122 117.05 95 122 117.05 
96 122 117.05 97 122 117.05 98 122 117.05 
99 122 117.05 100 122 117.05 101 122 117.05 
102 122 117.05 103 122 117.05 104 122 117.05 
104.95 122 118 91 123 117.05 90.05 123 118 
92 123 117.05 93 123 117.05 94 123 117.05 
95 123 117.05 96 123 117.05 97 123 117.05 
98 123 117.05 99 123 117.05 100 123 117.05 
101 123 117.05 102 123 117.05 103 123 117.05 
104 123 117.05 104.95 123 118 91 124 117.05 
90.05 124 118 92 124 117.05 93 124 117.05 
94 124 117.05 95 124 117.05 96 124 117.05 
97 124 117.05 98 124 117.05 99 124 117.05 
100 124 117.05 101 124 117.05 102 124 117.05 
103 124 117.05 104 124 117.05 104.95 124 118 
91 125 117.05 90.05 125 118 92 125 117.05 
93 125 117.05 94 125 117.05 95 125 117.05 
96 125 117.05 97 125 117.05 98 125 117.05 
99 125 117.05 100 125 117.05 101 125 117.05 
102 125 117.05 103 125 117.05 104 125 117.05 
104.95 125 118 91 126 117.05 90.05 126 118 
92 126 117.05 93 126 117.05 94 126 117.05 
95 126 117.05 96 126 117.05 97 126 117.05 
98 126 117.05 99 126 117.05 100 126 117.05 
101 126 117.05 102 126 117.05 103 126 117.05 
104 126 117.05 104.95 126 118 90 127 117.05 
90 126.05 118 89.05 127 118 91 127 117.05 
92 127 117.05 93 127 117.05 94 127 117.05 
95 127 117.05 96 127 117.05 97 127 117.05 
98 127 117.05 99 127 117.05 100 127 117.05 
101 127 117.05 104 127 117.05 104.95 127 118 
90 127.95 118 90.05 128 118 91 128 117.05 
92 128 117.05 93 128 117.05 94 128 117.05 
95 128 117.05 96 128 117.05 97 128 117.05 
98 128 117.05 99 128 117.05 100 128 117.05 
101 128 117.05 103 128 117.05 104 128 117.05 
104.95 128 118 91 129 117.05 90.05 129 118 
92 129 117.05 93 129 117.05 94 129 117.05 
95 129 117.05 96 129 117.05 97 129 117.05 
98 129 117.05 99 129 117.05 100 129 117.05 
101 129 117.05 103 129 117.05 103.95 129 118 
104 128.95 118 91 130 117.05 90.05 130 118 
92 130 117.05 93 130 117.05 94 130 117.05 
95 130 117.05 96 130 117.05 97 130 117.05 
98 130 117.05 99 130 117.05 100 130 117.05 
101 130 117.05 102 130 117.05 102.95 130 118 
103 129.95 118 91 131 117.05 90.05 131 118 
92 131 117.05 93 131 117.05 94 131 117.05 
95 131 117.05 96 131 117.05 97 131 117.05 
98 131 117.05 99 131 117.05 100 131 117.05 
101 131 117.05 102 131 117.05 102.95 131 118 
91 132 117.05 90.05 132 118 92 132 117.05 
93 132 117.05 94 132 117.05 95 132 117.05 
96 132 117.05 97 132 117.05 98 132 117.05 
99 132 117.05 100 132 117.05 101 132 117.05 
102 132 117.05 102.95 132 118 91 133 117.05 
90.05 133 118 92 133 117.05 93 133 117.05 
94 133 117.05 95 133 117.05 96 133 117.05 
97 133 117.05 98 133 117.05 99 133 117.05 
100 133 117.05 101 133 117.05 102 133 117.05 
102.95 133 118 91 134 117.05 90.05 134 118 
92 134 117.05 93 134 117.05 94 134 117.05 
95 134 117.05 96 134 117.05 97 134 117.05 
98 134 117.05 99 134 117.05 100 134 117.05 
101 134 117.05 102 134 117.05 102.95 134 118 
91 135 117.05 90.05 135 118 92 135 117.05 
93 135 117.05 94 135 117.05 95 135 117.05 
96 135 117.05 97 135 117.05 98 135 117.05 
99 135 117.05 100 135 117.05 101 135 117.05 
102 135 117.05 102.95 135 118 91 135.95 118 
92 135.95 118 92.05 136 118 93 136 117.05 
94 136 117.05 95 136 117.05 96 136 117.05 
97 136 117.05 98 136 117.05 99 136 117.05 
100 136 117.05 101 136 117.05 102 136 117.05 
102.95 136 118 93 137 117.05 92.05 137 118 
94 137 117.05 95 137 117.05 96 137 117.05 
97 137 117.05 98 137 117.05 99 137 117.05 
100 137 117.05 101 137 117.05 102 137 117.05 
102.95 137 118 93 138 117.05 92.05 138 118 
94 138 117.05 95 138 117.05 96 138 117.05 
97 138 117.05 98 138 117.05 99 138 117.05 
100 138 117.05 101 138 117.05 102 138 117.05 
102.95 138 118 93 139 117.05 92.05 139 118 
94 139 117.05 95 139 117.05 96 139 117.05 
97 139 117.05 98 139 117.05 99 139 117.05 
100 139 117.05 101 139 117.05 102 139 117.05 
102.95 139 118 93 140 117.05 92.05 140 118 
94 140 117.05 95 140 117.05 96 140 117.05 
97 140 117.05 98 140 117.05 99 140 117.05 
100 140 117.05 101 140 117.05 102 140 117.05 
102.95 140 118 93 141 117.05 92.05 141 118 
94 141 117.05 95 141 117.05 96 141 117.05 
97 141 117.05 98 141 117.05 99 141 117.05 
100 141 117.05 101 141 117.05 102 141 117.05 
102.95 141 118 93 142 117.05 92.05 142 118 
94 142 117.05 95 142 117.05 96 142 117.05 
97 142 117.05 98 142 117.05 99 142 117.05 
100 142 117.05 101 142 117.05 102 142 117.05 
102.95 142 118 93 143 117.05 92.05 143 118 
94 143 117.05 95 143 117.05 96 143 117.05 
97 143 117.05 98 143 117.05 99 143 117.05 
100 143 117.05 101 143 117.05 102 143 117.05 
102.95 143 118 93 144 117.05 92.05 144 118 
94 144 117.05 95 144 117.05 96 144 117.05 
97 144 117.05 98 144 117.05 99 144 117.05 
100 144 117.05 101 144 117.05 102 144 117.05 
102.95 144 118 92.05 145 118 99 145 117.05 
100 145 117.05 101 145 117.05 102 145 117.05 
102.95 145 118 93 146 117.05 92.05 146 118 
94 146 117.05 95 146 117.05 96 146 117.05 
97 146 117.05 99 146 117.05 100 146 117.05 
101 146 117.05 102 146 117.05 102.95 146 118 
93 147 117.05 92.05 147 118 94 147 117.05 
95 147 117.05 96 147 117.05 97 147 117.05 
102 147 117.05 102.95 147 118 93 148 117.05 
92.05 148 118 94 148 117.05 95 148 117.05 
96 148 117.05 97 148 117.05 98 148 117.05 
99 148 117.05 100 148 117.05 101 148 117.05 
102 148 117.05 102.95 148 118 93 149 117.05 
92.05 149 118 94 149 117.05 95 149 117.05 
96 149 117.05 97 149 117.05 98 149 117.05 
99 149 117.05 100 149 117.05 101 149 117.05 
102 149 117.05 102.95 149 118 93 150 117.05 
92.05 150 118 94 150 117.05 95 150 117.05 
96 150 117.05 97 150 117.05 98 150 117.05 
99 150 117.05 100 150 117.05 101 150 117.05 
102 150 117.05 102.95 150 118 93 151 117.05 
92.05 151 118 94 151 117.05 95 151 117.05 
96 151 117.05 97 151 117.05 98 151 117.05 
99 151 117.05 100 151 117.05 101 151 117.05 
101.95 151 118 102 150.95 118 93 151.95 118 
94 151.95 118 95 151.95 118 96 151.95 118 
97 151.95 118 98 151.95 118 99 151.95 118 
100 151.95 118 101 151.95 118 99 117.05 119 
98.05 118 119 100 117.05 119 101 117.05 119 
102 117.05 119 102.95 118 119 98 118.05 119 
97.05 119 119 102.95 119 119 92 120 118.05 
92 119.05 119 91.05 120 119 93 119.05 119 
94 119.05 119 95 119.05 119 96 119.05 119 
97 119.05 119 103 119.05 119 104 119.05 119 
104.95 120 119 91 121 118.05 91 120.05 119 
90.05 121 119 104.95 121 119 90.05 122 119 
104.95 122 119 90.05 123 119 104.95 123 119 
90.05 124 119 104.95 124 119 90 125 118.05 
90 124.05 119 89.05 125 119 104.95 125 119 
90 126 118.05 89.05 126 119 104.95 126 119 
89.05 127 119 104.95 127 119 90 127.95 119 
90.05 128 119 104.95 128 119 90.05 129 119 
103.95 129 119 104 128.95 119 90.05 130 119 
102.95 130 119 103 129.95 119 90.05 131 119 
102.95 131 119 90.05 132 119 102.95 132 119 
90.05 133 119 102.95 133 119 90.05 134 119 
102.95 134 119 91 134.95 119 91 135 118.95 
91.05 135 119 102.95 135 119 92 135.95 119 
92.05 136 119 102.95 136 119 92.05 137 119 
102.95 137 119 92.05 138 119 102.95 138 119 
92.05 139 119 102.95 139 119 92.05 140 119 
102.95 140 119 92.05 141 119 102.95 141 119 
92.05 142 119 102.95 142 119 92.05 143 119 
102.95 143 119 92.05 144 119 102.95 144 119 
92.05 145 119 102.95 145 119 92.05 146 119 
102.95 146 119 92.05 147 119 102.95 147 119 
92.05 148 119 102.95 148 119 92.05 149 119 
102.95 149 119 92.05 150 119 102.95 150 119 
92.05 151 119 101.95 151 119 102 150.95 119 
93 151.95 119 94 151.95 119 95 151.95 119 
96 151.95 119 97 151.95 119 98 151.95 119 
99 151.95 119 100 151.95 119 101 151.95 119 
101 100 119.05 101 99.05 120 100.05 100 120 
102 100 119.05 102 99.05 120 103 100 119.05 
103 99.05 120 104 100 119.05 104 99.05 120 
104.95 100 120 100 101 119.05 100 100.05 120 
99.05 101 120 101 101 119.05 102 101 119.05 
103 101 119.05 104 101 119.05 104.95 101 120 
99 102 119.05 99 101.05 120 98.05 102 120 
100 102 119.05 101 102 119.05 102 102 119.05 
103 102 119.05 104 102 119.05 104.95 102 120 
98 103 119.05 98 102.05 120 97.05 103 120 
99 103 119.05 100 103 119.05 101 103 119.05 
102 103 119.05 103 103 119.05 104 103 119.05 
104.95 103 120 95 104 119.05 95 103.05 120 
94.05 104 120 96 104 119.05 96 103.05 120 
97 104 119.05 97 103.05 120 98 104 119.05 
99 104 119.05 100 104 119.05 101 104 119.05 
102 104 119.05 103 104 119.05 104 104 119.05 
104.95 104 120 94 105 119.05 94 104.05 120 
93.05 105 120 95 105 119.05 96 105 119.05 
97 105 119.05 98 105 119.05 99 105 119.05 
[...]
POINT_DATA 6318
SCALARS scalars float
LOOKUP_TABLE default
1 1 1 1 1 1 1 1 1 
1 1 1 1 1 1 1 1 1 
1 1 1 1 1 1 1 1 1 
1 1 1 1 1 1 1 1 1 
1 1 1 1 1 1 1 1 1 
1 1 1 1 1 1 1 1 1 
1 1 1 1 1 1 1 1 1 
1 1 1 1 1 1 1 1 1 
1 1 1 1 1 1 1 1 1 
1 1 1 1 1 1 1 1 1 
1 1 1 1 1 1 1 1 1 
1 1 1 1 1 1 1 1 1 
1 1 1 1 1 1 1 1 1 
1 1 1 1 1 1 1 1 1 
1 1 1 1 1 1 1 1 1 
1 1 1 1 1 1 1 1 1 
1 1 1 1 1 1 1 1 1 
1 1 1 1 1 1 1 1 1 
1 1 1 1 1 1 1 1 1 
1 1 1 1 1 1 1 1 1 
1 1 1 1 1 1 1 1 1 
1 1 1 1 1 1 1 1 1 
1 1 1 1 1 1 1 1 1 
1 1 1 1 1 1 1 1 1 
1 1 1 1 1 1 1 1 1 
1 1 1 1 1 1 1 1 1 
1 1 1 1 1 1 1 1 1 
1 1 1 1 1 1 1 1 1 
1 1 1 1 1 1 1 1 1 
1 1 1 1 1 1 1 1 1 
1 1 1 1 1 1 1 1 1 
1 1 1 1 1 1 1 1 1 
1 1 1 1 1 1 1 1 1 
1 1 1 1 1 1 1 1 1 
1 1 1 1 1 1 1 1 1 
1 1 1 1 1 1 1 1 1 
1 1 1 1 1 1 1 1 1 
1 1 1 1 1 1 1 1 1 
1 1 1 1 1 1 1 1 1 
1 1 1 1 1 1 1 1 1 
1 1 1 1 1 1 1 1 1 
1 1 1 1 1 1 1 1 1 
1 1 1 1 1 1 1 1 1 
1 1 1 1 1 1 1 1 1 
1 1 1 1 1 1 1 1 1 
1 1 1 1 1 1 1 1 1 
1 1 1 1 1 1 1 1 1 
1 1 1 1 1 1 1 1 1 
1 1 1 1 1 1 1 1 1 
1 1 1 1 1 1 1 1 1 
1 1 1 1 1 1 1 1 1 
1 1 1 1 1 1 1 1 1 
1 1 1 1 1 1 1 1 1 
1 1 1 1 1 1 1 1 1 
1 1 1 1 1 1 1 1 1 
1 1 1 1 1 1 1 1 1 
1 1 1 1 1 1 1 1 1 
1 1 1 1 1 1 1 1 1 
1 1 1 1 1 1 1 1 1 
1 1 1 1 1 1 1 1 1 
1 1 1 1 1 1 1 1 1 
1 1 1 1 1 1 1 1 1 
1 1 1 1 1 1 1 1 1 
1 1 1 1 1 1 1 1 1 
1 1 1 1 1 1 1 1 1 
1 1 1 1 1 1 1 1 1 
1 1 1 1 1 1 1 1 1 
1 1 1 1 1 1 1 1 1 
1 1 1 1 1 1 1 1 1 
1 1 1 1 1 1 1 1 1 
1 1 1 1 1 1 1 1 1 
1 1 1 1 1 1 1 1 1 
1 1 1 1 1 1 1 1 1 
1 1 1 1 1 1 1 1 1 
1 1 1 1 1 1 1 1 1 
1 1 1 1 1 1 1 1 1 
1 1 1 1 1 1 1 1 1 
1 1 1 1 1 1 1 1 1 
1 1 1 1 1 1 1 1 1 
1 1 1 1 1 1 1 1 1 
1 1 1 1 1 1 1 1 1 
1 1 1 1 1 1 1 1 1 
1 1 1 1 1 1 1 1 1 
1 1 1 1 1 1 1 1 1 
1 1 1 1 1 1 1 1 1 
1 1 1 1 1 1 1 1 1 
1 1 1 1 1 1 1 1 1 
1 1 1 1 1 1 1 1 1 
1 1 1 1 1 1 1 1 1 
1 1 1 1 1 1 1 1 1 
1 1 1 1 1 1 1 1 1 
1 1 1 1 1 1 1 1 1 
1 1 1 1 1 1 1 1 1 
1 1 1 1 1 1 1 1 1 
1 1 1 1 1 1 1 1 1 
1 1 1 1 1 1 1 1 1 
1 1 1 1 1 1 1 1 1 
1 1 1 1 1 1 1 1 1 
1 1 1 1 1 1 1 1 1 
1 1 1 1 1 1 1 1 1 
1 1 1 1 1 1 1 1 1 
1 1 1 1 1 1 1 1 1 
1 1 1 1 1 1 1 1 1 
1 1 1 1 1 1 1 1 1 
1 1 1 1 1 1 1 1 1 
1 1 1 1 1 1 1 1 1 
1 1 1 1 1 1 1 1 1 
1 1 1 1 1 1 1 1 1 
1 1 1 1 1 1 1 1 1 
1 1 1 1 1 1 1 1 1 
1 1 1 1 1 1 1 1 1 
1 1 1 1 1 1 1 1 1 
1 1 1 1 1 1 1 1 1 
1 1 1 1 1 1 1 1 1 
1 1 1 1 1 1 1 1 1 
1 1 1 1 1 1 1 1 1 
1 1 1 1 1 1 1 1 1 
1 1 1 1 1 1 1 1 1 
1 1 1 1 1 1 1 1 1 
1 1 1 1 1 1 1 1 1 
1 1 1 1 1 1 1 1 1 
1 1 1 1 1 1 1 1 1 
1 1 1 1 1 1 1 1 1 
1 1 1 1 1 1 1 1 1 
1 1 1 1 1 1 1 1 1 
1 1 1 1 1 1 1 1 1 
1 1 1 1 1 1 1 1 1 
1 1 1 1 1 1 1 1 1 
1 1 1 1 1 1 1 1 1 
1 1 1 1 1 1 1 1 1 
1 1 1 1 1 1 1 1 1 
1 1 1 1 1 1 1 1 1 
1 1 1 1 1 1 1 1 1 
1 1 1 1 1 1 1 1 1 
1 1 1 1 1 1 1 1 1 
1 1 1 1 1 1 1 1 1 
1 1 1 1 1 1 1 1 1 
1 1 1 1 1 1 1 1 1 
1 1 1 1 1 1 1 1 1 
1 1 1 1 1 1 1 1 1 
1 1 1 1 1 1 1 1 1 
1 1 1 1 1 1 1 1 1 
1 1 1 1 1 1 1 1 1 
1 1 1 1 1 1 1 1 1 
1 1 1 1 1 1 1 1 1 
1 1 1 1 1 1 1 1 1 
1 1 1 1 1 1 1 1 1 
1 1 1 1 1 1 1 1 1 
1 1 1 1 1 1 1 1 1 
1 1 1 1 1 1 1 1 1 
1 1 1 1 1 1 1 1 1 
1 1 1 1 1 1 1 1 1 
1 1 1 1 1 1 1 1 1 
1 1 1 1 1 1 1 1 1 
1 1 1 1 1 1 1 1 1 
1 1 1 1 1 1 1 1 1 
1 1 1 1 1 1 1 1 1 
1 1 1 1 1 1 1 1 1 
1 1 1 1 1 1 1 1 1 
1 1 1 1 1 1 1 1 1 
1 1 1 1 1 1 1 1 1 
1 1 1 1 1 1 1 1 1 
1 1 1 1 1 1 1 1 1 
1 1 1 1 1 1 1 1 1 
1 1 1 1 1 1 1 1 1 
1 1 1 1 1 1 1 1 1 
1 1 1 1 1 1 1 1 1 
1 1 1 1 1 1 1 1 1 
1 1 1 1 1 1 1 1 1 
1 1 1 1 1 1 1 1 1 
1 1 1 1 1 1 1 1 1 
1 1 1 1 1 1 1 1 1 
1 1 1 1 1 1 1 1 1 
1 1 1 1 1 1 1 1 1 
1 1 1 1 1 1 1 1 1 
1 1 1 1 1 1 1 1 1 
1 1 1 1 1 1 1 1 1 
1 1 1 1 1 1 1 1 1 
1 1 1 1 1 1 1 1 1 
1 1 1 1 1 1 1 1 1 
1 1 1 1 1 1 1 1 1 
1 1 1 1 1 1 1 1 1 
1 1 1 1 1 1 1 1 1 
1 1 1 1 1 1 1 1 1 
1 1 1 1 1 1 1 1 1 
1 1 1 1 1 1 1 1 1 
1 1 1 1 1 1 1 1 1 
1 1 1 1 1 1 1 1 1 
1 1 1 1 1 1 1 1 1 
1 1 1 1 1 1 1 1 1 
1 1 1 1 1 1 1 1 1 
1 1 1 1 1 1 1 1 1 
1 1 1 1 1 1 1 1 1 
1 1 1 1 1 1 1 1 1 
1 1 1 1 1 1 1 1 1 
1 1 1 1 1 1 1 1 1 
1 1 1 1 1 1 1 1 1 
1 1 1 1 1 1 1 1 1 
1 1 1 1 1 1 1 1 1 
1 1 1 1 1 1 1 1 1 
1 1 1 1 1 1 1 1 1 
1 1 1 1 1 1 1 1 1 
1 1 1 1 1 1 1 1 1 
1 1 1 1 1 1 1 1 1 
1 1 1 1 1 1 1 1 1 
1 1 1 1 1 1 1 1 1 
1 1 1 1 1 1 1 1 1 
1 1 1 1 1 1 1 1 1 
1 1 1 1 1 1 1 1 1 
1 1 1 1 1 1 1 1 1 
1 1 1 1 1 1 1 1 1 
1 1 1 1 1 1 1 1 1 
1 1 1 1 1 1 1 1 1 
1 1 1 1 1 1 1 1 1 
1 1 1 1 1 1 1 1 1 
1 1 1 1 1 1 1 1 1 
1 1 1 1 1 1 1 1 1 
1 1 1 1 1 1 1 1 1 
1 1 1 1 1 1 1 1 1 
1 1 1 1 1 1 1 1 1 
1 1 1 1 1 1 1 1 1 
1 1 1 1 1 1 1 1 1 
1 1 1 1 1 1 1 1 1 
1 1 1 1 1 1 1 1 1 
1 1 1 1 1 1 1 1 1 
1 1 1 1 1 1 1 1 1 
1 1 1 1 1 1 1 1 1 
1 1 1 1 1 1 1 1 1 
1 1 1 1 1 1 1 1 1 
1 1 1 1 1 1 1 1 1 
1 1 1 1 1 1 1 1 1 
1 1 1 1 1 1 1 1 1 
1 1 1 1 1 1 1 1 1 
1 1 1 1 1 1 1 1 1 
1 1 1 1 1 1 1 1 1 
1 1 1 1 1 1 1 1 1 
1 1 1 1 1 1 1 1 1 
1 1 1 1 1 1 1 1 1 
1 1 1 1 1 1 1 1 1 
1 1 1 1 1 1 1 1 1 
1 1 1 1 1 1 1 1 1 
1 1 1 1 1 1 1 1 1 
1 1 1 1 1 1 1 1 1 
1 1 1 1 1 1 1 1 1 
1 1 1 1 1 1 1 1 1 
1 1 1 1 1 1 1 1 1 
1 1 1 1 1 1 1 1 1 
1 1 1 1 1 1 1 1 1 
1 1 1 1 1 1 1 1 1 
1 1 1 1 1 1 1 1 1 
1 1 1 1 1 1 1 1 1 
1 1 1 1 1 1 1 1 1 
1 1 1 1 1 1 1 1 1 
1 1 1 1 1 1 1 1 1 
1 1 1 1 1 1 1 1 1 
1 1 1 1 1 1 1 1 1 
1 1 1 1 1 1 1 1 1 
1 1 1 1 1 1 1 1 1 
1 1 1 1 1 1 1 1 1 
1 1 1 1 1 1 1 1 1 
1 1 1 1 1 1 1 1 1 
1 1 1 1 1 1 1 1 1 
1 1 1 1 1 1 1 1 1 
1 1 1 1 1 1 1 1 1 
1 1 1 1 1 1 1 1 1 
1 1 1 1 1 1 1 1 1 
1 1 1 1 1 1 1 1 1 
1 1 1 1 1 1 1 1 1 
1 1 1 1 1 1 1 1 1 
1 1 1 1 1 1 1 1 1 
1 1 1 1 1 1 1 1 1 
1 1 1 1 1 1 1 1 1 
1 1 1 1 1 1 1 1 1 
1 1 1 1 1 1 1 1 1 
1 1 1 1 1 1 1 1 1 
1 1 1 1 1 1 1 1 1 
1 1 1 1 1 1 1 1 1 
1 1 1 1 1 1 1 1 1 
1 1 1 1 1 1 1 1 1 
1 1 1 1 1 1 1 1 1 
1 1 1 1 1 1 1 1 1 
1 1 1 1 1 1 1 1 1 
1 1 1 1 1 1 1 1 1 
1 1 1 1 1 1 1 1 1 
1 1 1 1 1 1 1 1 1 
1 1 1 1 1 1 1 1 1 
1 1 1 1 1 1 1 1 1 
1 1 1 1 1 1 1 1 1 
1 1 1 1 1 1 1 1 1 
1 1 1 1 1 1 1 1 1 
1 1 1 1 1 1 1 1 1 
1 1 1 1 1 1 1 1 1 
1 1 1 1 1 1 1 1 1 
1 1 1 1 1 1 1 1 1 
1 1 1 1 1 1 1 1 1 
1 1 1 1 1 1 1 1 1 
1 1 1 1 1 1 1 1 1 
1 1 1 1 1 1 1 1 1 
1 1 1 1 1 1 1 1 1 
1 1 1 1 1 1 1 1 1 
1 1 1 1 1 1 1 1 1 
1 1 1 1 1 1 1 1 1 
1 1 1 1 1 1 1 1 1 
1 1 1 1 1 1 1 1 1 
1 1 1 1 1 1 1 1 1 
1 1 1 1 1 1 1 1 1 
1 1 1 1 1 1 1 1 1 
1 1 1 1 1 1 1 1 1 
1 1 1 1 1 1 1 1 1 
1 1 1 1 1 1 1 1 1 
1 1 1 1 1 1 1 1 1 
1 1 1 1 1 1 1 1 1 
1 1 1 1 1 1 1 1 1 
1 1 1 1 1 1 1 1 1 
1 1 1 1 1 1 1 1 1 
1 1 1 1 1 1 1 1 1 
1 1 1 1 1 1 1 1 1 
1 1 1 1 1 1 1 1 1 
1 1 1 1 1 1 1 1 1 
1 1 1 1 1 1 1 1 1 
1 1 1 1 1 1 1 1 1 
1 1 1 1 1 1 1 1 1 
1 1 1 1 1 1 1 1 1 
1 1 1 1 1 1 1 1 1 
1 1 1 1 1 1 1 1 1 
1 1 1 1 1 1 1 1 1 
1 1 1 1 1 1 1 1 1 
1 1 1 1 1 1 1 1 1 
1 1 1 1 1 1 1 1 1 
1 1 1 1 1 1 1 1 1 
1 1 1 1 1 1 1 1 1 
1 1 1 1 1 1 1 1 1 
1 1 1 1 1 1 1 1 1 
1 1 1 1 1 1 1 1 1 
1 1 1 1 1 1 1 1 1 
1 1 1 1 1 1 1 1 1 
1 1 1 1 1 1 1 1 1 
1 1 1 1 1 1 1 1 1 
1 1 1 1 1 1 1 1 1 
1 1 1 1 1 1 1 1 1 
1 1 1 1 1 1 1 1 1 
1 1 1 1 1 1 1 1 1 
1 1 1 1 1 1 1 1 1 
1 1 1 1 1 1 1 1 1 
1 1 1 1 1 1 1 1 1 
1 1 1 1 1 1 1 1 1 
1 1 1 1 1 1 1 1 1 
1 1 1 1 1 1 1 1 1 
1 1 1 1 1 1 1 1 1 
1 1 1 1 1 1 1 1 1 
1 1 1 1 1 1 1 1 1 
1 1 1 1 1 1 1 1 1 
1 1 1 1 1 1 1 1 1 
1 1 1 1 1 1 1 1 1 
1 1 1 1 1 1 1 1 1 
1 1 1 1 1 1 1 1 1 
1 1 1 1 1 1 1 1 1 
1 1 1 1 1 1 1 1 1 
1 1 1 1 1 1 1 1 1 
1 1 1 1 1 1 1 1 1 
1 1 1 1 1 1 1 1 1 
1 1 1 1 1 1 1 1 1 
1 1 1 1 1 1 1 1 1 
1 1 1 1 1 1 1 1 1 
1 1 1 1 1 1 1 1 1 
1 1 1 1 1 1 1 1 1 
1 1 1 1 1 1 1 1 1 
1 1 1 1 1 1 1 1 1 
1 1 1 1 1 1 1 1 1 
1 1 1 1 1 1 1 1 1 
1 1 1 1 1 1 1 1 1 
1 1 1 1 1 1 1 1 1 
1 1 1 1 1 1 1 1 1 
1 1 1 1 1 1 1 1 1 
1 1 1 1 1 1 1 1 1 
1 1 1 1 1 1 1 1 1 
1 1 1 1 1 1 1 1 1 
1 1 1 1 1 1 1 1 1 
1 1 1 1 1 1 1 1 1 
1 1 1 1 1 1 1 1 1 
1 1 1 1 1 1 1 1 1 
1 1 1 1 1 1 1 1 1 
1 1 1 1 1 1 1 1 1 
1 1 1 1 1 1 1 1 1 
1 1 1 1 1 1 1 1 1 
1 1 1 1 1 1 1 1 1 
1 1 1 1 1 1 1 1 1 
1 1 1 1 1 1 1 1 1 
1 1 1 1 1 1 1 1 1 
1 1 1 1 1 1 1 1 1 
1 1 1 1 1 1 1 1 1 
1 1 1 1 1 1 1 1 1 
1 1 1 1 1 1 1 1 1 
1 1 1 1 1 1 1 1 1 
1 1 1 1 1 1 1 1 1 
1 1 1 1 1 1 1 1 1 
1 1 1 1 1 1 1 1 1 
1 1 1 1 1 1 1 1 1 
1 1 1 1 1 1 1 1 1 
1 1 1 1 1 1 1 1 1 
1 1 1 1 1 1 1 1 1 
1 1 1 1 1 1 1 1 1 
1 1 1 1 1 1 1 1 1 
1 1 1 1 1 1 1 1 1 
1 1 1 1 1 1 1 1 1 
1 1 1 1 1 1 1 1 1 
1 1 1 1 1 1 1 1 1 
1 1 1 1 1 1 1 1 1 
1 1 1 1 1 1 1 1 1 
1 1 1 1 1 1 1 1 1 
1 1 1 1 1 1 1 1 1 
1 1 1 1 1 1 1 1 1 
1 1 1 1 1 1 1 1 1 
1 1 1 1 1 1 1 1 1 
1 1 1 1 1 1 1 1 1 
1 1 1 1 1 1 1 1 1 
1 1 1 1 1 1 1 1 1 
1 1 1 1 1 1 1 1 1 
1 1 1 1 1 1 1 1 1 
1 1 1 1 1 1 1 1 1 
1 1 1 1 1 1 1 1 1 
1 1 1 1 1 1 1 1 1 
1 1 1 1 1 1 1 1 1 
1 1 1 1 1 1 1 1 1 
1 1 1 1 1 1 1 1 1 
1 1 1 1 1 1 1 1 1 
1 1 1 1 1 1 1 1 1 
1 1 1 1 1 1 1 1 1 
1 1 1 1 1 1 1 1 1 
1 1 1 1 1 1 1 1 1 
1 1 1 1 1 1 1 1 1 
1 1 1 1 1 1 1 1 1 
1 1 1 1 1 1 1 1 1 
1 1 1 1 1 1 1 1 1 
1 1 1 1 1 1 1 1 1 
1 1 1 1 1 1 1 1 1 
1 1 1 1 1 1 1 1 1 
1 1 1 1 1 1 1 1 1 
1 1 1 1 1 1 1 1 1 
1 1 1 1 1 1 1 1 1 
1 1 1 1 1 1 1 1 1 
1 1 1 1 1 1 1 1 1 
1 1 1 1 1 1 1 1 1 
1 1 1 1 1 1 1 1 1 
1 1 1 1 1 1 1 1 1 
1 1 1 1 1 1 1 1 1 
1 1 1 1 1 1 1 1 1 
1 1 1 1 1 1 1 1 1 
1 1 1 1 1 1 1 1 1 
1 1 1 1 1 1 1 1 1 
1 1 1 1 1 1 1 1 1 
1 1 1 1 1 1 1 1 1 
1 1 1 1 1 1 1 1 1 
1 1 1 1 1 1 1 1 1 
1 1 1 1 1 1 1 1 1 
1 1 1 1 1 1 1 1 1 
1 1 1 1 1 1 1 1 1 
1 1 1 1 1 1 1 1 1 
1 1 1 1 1 1 1 1 1 
1 1 1 1 1 1 1 1 1 
1 1 1 1 1 1 1 1 1 
1 1 1 1 1 1 1 1 1 
1 1 1 1 1 1 1 1 1 
1 1 1 1 1 1 1 1 1 
1 1 1 1 1 1 1 1 1 
1 1 1 1 1 1 1 1 1 
1 1 1 1 1 1 1 1 1 
1 1 1 1 1 1 1 1 1 
1 1 1 1 1 1 1 1 1 
1 1 1 1 1 1 1 1 1 
1 1 1 1 1 1 1 1 1 
1 1 1 1 1 1 1 1 1 
1 1 1 1 1 1 1 1 1 
1 1 1 1 1 1 1 1 1 
1 1 1 1 1 1 1 1 1 
1 1 1 1 1 1 1 1 1 
1 1 1 1 1 1 1 1 1 
1 1 1 1 1 1 1 1 1 
1 1 1 1 1 1 1 1 1 
1 1 1 1 1 1 1 1 1 
1 1 1 1 1 1 1 1 1 
1 1 1 1 1 1 1 1 1 
1 1 1 1 1 1 1 1 1 
1 1 1 1 1 1 1 1 1 
1 1 1 1 1 1 1 1 1 
1 1 1 1 1 1 1 1 1 
1 1 1 1 1 1 1 1 1 
1 1 1 1 1 1 1 1 1 
1 1 1 1 1 1 1 1 1 
1 1 1 1 1 1 1 1 1 
1 1 1 1 1 1 1 1 1 
1 1 1 1 1 1 1 1 1 
1 1 1 1 1 1 1 1 1 
1 1 1 1 1 1 1 1 1 
1 1 1 1 1 1 1 1 1 
1 1 1 1 1 1 1 1 1 
1 1 1 1 1 1 1 1 1 
1 1 1 1 1 1 1 1 1 
1 1 1 1 1 1 1 1 1 
1 1 1 1 1 1 1 1 1 
1 1 1 1 1 1 1 1 1 
1 1 1 1 1 1 1 1 1 
1 1 1 1 1 1 1 1 1 
1 1 1 1 1 1 1 1 1 
1 1 1 1 1 1 1 1 1 
1 1 1 1 1 1 1 1 1 
1 1 1 1 1 1 1 1 1 
1 1 1 1 1 1 1 1 1 
1 1 1 1 1 1 1 1 1 
1 1 1 1 1 1 1 1 1 
1 1 1 1 1 1 1 1 1 
1 1 1 1 1 1 1 1 1 
1 1 1 1 1 1 1 1 1 
1 1 1 1 1 1 1 1 1 
1 1 1 1 1 1 1 1 1 
1 1 1 1 1 1 1 1 1 
1 1 1 1 1 1 1 1 1 
1 1 1 1 1 1 1 1 1 
1 1 1 1 1 1 1 1 1 
1 1 1 1 1 1 1 1 1 
1 1 1 1 1 1 1 1 1 
1 1 1 1 1 1 1 1 1 
1 1 1 1 1 1 1 1 1 
1 1 1 1 1 1 1 1 1 
1 1 1 1 1 1 1 1 1 
1 1 1 1 1 1 1 1 1 
1 1 1 1 1 1 1 1 1 
1 1 1 1 1 1 1 1 1 
1 1 1 1 1 1 1 1 1 
1 1 1 1 1 1 1 1 1 
1 1 1 1 1 1 1 1 1 
1 1 1 1 1 1 1 1 1 
1 1 1 1 1 1 1 1 1 
1 1 1 1 1 1 1 1 1 
1 1 1 1 1 1 1 1 1 
1 1 1 1 1 1 1 1 1 
1 1 1 1 1 1 1 1 1 
1 1 1 1 1 1 1 1 1 
1 1 1 1 1 1 1 1 1 
1 1 1 1 1 1 1 1 1 
1 1 1 1 1 1 1 1 1 
1 1 1 1 1 1 1 1 1 
1 1 1 1 1 1 1 1 1 
1 1 1 1 1 1 1 1 1 
1 1 1 1 1 1 1 1 1 
1 1 1 1 1 1 1 1 1 
1 1 1 1 1 1 1 1 1 
1 1 1 1 1 1 1 1 1 
1 1 1 1 1 1 1 1 1 
1 1 1 1 1 1 1 1 1 
1 1 1 1 1 1 1 1 1 
1 1 1 1 1 1 1 1 1 
1 1 1 1 1 1 1 1 1 
1 1 1 1 1 1 1 1 1 
1 1 1 1 1 1 1 1 1 
1 1 1 1 1 1 1 1 1 
1 1 1 1 1 1 1 1 1 
1 1 1 1 1 1 1 1 1 
1 1 1 1 1 1 1 1 1 
1 1 1 1 1 1 1 1 1 
1 1 1 1 1 1 1 1 1 
1 1 1 1 1 1 1 1 1 
1 1 1 1 1 1 1 1 1 
1 1 1 1 1 1 1 1 1 
1 1 1 1 1 1 1 1 1 
1 1 1 1 1 1 1 1 1 
1 1 1 1 1 1 1 1 1 
1 1 1 1 1 1 1 1 1 
1 1 1 1 1 1 1 1 1 
1 1 1 1 1 1 1 1 1 
1 1 1 1 1 1 1 1 1 
1 1 1 1 1 1 1 1 1 
1 1 1 1 1 1 1 1 1 
1 1 1 1 1 1 1 1 1 
1 1 1 1 1 1 1 1 1 
1 1 1 1 1 1 1 1 1 
1 1 1 1 1 1 1 1 1 
1 1 1 1 1 1 1 1 1 
1 1 1 1 1 1 1 1 1 
1 1 1 1 1 1 1 1 1 
1 1 1 1 1 1 1 1 1 
1 1 1 1 1 1 1 1 1 
1 1 1 1 1 1 1 1 1 
1 1 1 1 1 1 1 1 1 
1 1 1 1 1 1 1 1 1 
1 1 1 1 1 1 1 1 1 
1 1 1 1 1 1 1 1 1 
1 1 1 1 1 1 1 1 1 
1 1 1 1 1 1 1 1 1 
1 1 1 1 1 1 1 1 1 
1 1 1 1 1 1 1 1 1 
1 1 1 1 1 1 1 1 1 
1 1 1 1 1 1 1 1 1 
1 1 1 1 1 1 1 1 1 
1 1 1 1 1 1 1 1 1 
1 1 1 1 1 1 1 1 1 
1 1 1 1 1 1 1 1 1 
1 1 1 1 1 1 1 1 1 
1 1 1 1 1 1 1 1 1 
1 1 1 1 1 1 1 1 1 
1 1 1 1 1 1 1 1 1 
1 1 1 1 1 1 1 1 1 
1 1 1 1 1 1 1 1 1 
1 1 1 1 1 1 1 1 1 
1 1 1 1 1 1 1 1 1 
1 1 1 1 1 1 1 1 1 
1 1 1 1 1 1 1 1 1 
1 1 1 1 1 1 1 1 1 
1 1 1 1 1 1 1 1 1 
1 1 1 1 1 1 1 1 1 
1 1 1 1 1 1 1 1 1 
1 1 1 1 1 1 1 1 1 
1 1 1 1 1 1 1 1 1 
1 1 1 1 1 1 1 1 1 
1 1 1 1 1 1 1 1 1 
1 1 1 1 1 1 1 1 1 
1 1 1 1 1 1 1 1 1 
1 1 1 1 1 1 1 1 1 
1 1 1 1 1 1 1 1 1 
1 1 1 1 1 1 1 1 1 
1 1 1 1 1 1 1 1 1 
1 1 1 1 1 1 1 1 1 
1 1 1 1 1 1 1 1 1 
1 1 1 1 1 1 1 1 1 
1 1 1 1 1 1 1 1 1 
1 1 1 1 1 1 1 1 1 
1 1 1 1 1 1 1 1 1 
1 1 1 1 1 1 1 1 1 
1 1 1 1 1 1 1 1 1 
1 1 1 1 1 1 1 1 1 
1 1 1 1 1 1 1 1 1 
1 1 1 1 1 1 1 1 1 
1 1 1 1 1 1 1 1 1 
1 1 1 1 1 1 1 1 1 
1 1 1 1 1 1 1 1 1 
1 1 1 1 1 1 1 1 1 
1 1 1 1 1 1 1 1 1 
1 1 1 1 1 1 1 1 1 
1 1 1 1 1 1 1 1 1 
1 1 1 1 1 1 1 1 1 
1 1 1 1 1 1 1 1 1 
1 1 1 1 1 1 1 1 1 
1 1 1 1 1 1 1 1 1 
1 1 1 1 1 1 1 1 1 
1 1 1 1 1 1 1 1 1 
1 1 1 1 1 1 1 1 1 
1 1 1 1 1 1 1 1 1 
1 1 1 1 1 1 1 1 1 
1 1 1 1 1 1 1 1 1 
1 1 1 1 1 1 1 1 1 
1 1 1 1 1 1 1 1 1 
1 1 1 1 1 1 1 1 1 
1 1 1 1 1 1 1 1 1 
1 1 1 1 1 1 1 1 1 
1 1 1 1 1 1 1 1 1 
1 1 1 1 1 1 1 1 1 
1 1 1 1 1 1 1 1 1 
1 1 1 1 1 1 1 1 1 
1 1 1 1 1 1 1 1 1 
1 1 1 1 1 1 1 1 1 
1 1 1 1 1 1 1 1 1 
1 1 1 1 1 1 1 1 1 
1 1 1 1 1 1 1 1 1 
1 1 1 1 1 1 1 1 1 
1 1 1 1 1 1 1 1 1 
1 1 1 1 1 1 1 1 1 
1 1 1 1 1 1 1 1 1 
1 1 1 1 1 1 1 1 1 
1 1 1 1 1 1 1 1 1 
1 1 1 1 1 1 1 1 1 
1 1 1 1 1 1 1 1 1 
1 1 1 1 1 1 1 1 1 
1 1 1 1 1 1 1 1 1 
1 1 1 1 1 1 1 1 1 
1 1 1 1 1 1 1 1 1 
1 1 1 1 1 1 1 1 1 
1 1 1 1 1 1 1 1 1 
1 1 1 1 1 1 1 1 1 
1 1 1 1 1 1 1 1 1 
1 1 1 1 1 1 1 1 1 
1 1 1 1 1 1 1 1 1 
1 1 1 1 1 1 1 1 1 
1 1 1 1 1 1 1 1 1 
1 1 1 1 1 1 1 1 1 
1 1 1 1 1 1 1 1 1 
1 1 1 1 1 1 1 1 1 
1 1 1 1 1 1 1 1 1 
1 1 1 1 1 1 1 1 1 
1 1 1 1 1 1 1 1 1 
1 1 1 1 1 1 1 1 1 
1 1 1 1 1 1 1 1 1 
1 1 1 1 1 1 1 1 1 
1 1 1 1 1 1 1 1 1 
1 1 1 1 1 1 1 1 1 
1 1 1 1 1 1 1 1 1 
1 1 1 1 1 1 1 1 1 
1 1 1 1 1 1 1 1 1 
1 1 1 1 1 1 1 1 1 
1 1 1 1 1 1 1 1 1 
1 1 1 1 1 1 1 1 1 
1 1 1 1 1 1 1 1 1 
1 1 1 1 1 1 1 1 1 

NORMALS normals float
-0.0498755 -0.0498755 -0.997509 -0.0353333 -0.706665 -0.706665 -0.706665 -0.0353333 -0.706665 
0.0499376 0 -0.998752 0.0362262 -0.688297 -0.724524 0.707107 0 -0.707107 
0 0 -1 -0.688749 0 -0.724999 0.567227 0.567227 -0.597081 
0.586967 0.557619 -0.586967 0 0.0499376 -0.998752 -0.688297 0.0362262 -0.724524 
0.688297 0.0362262 -0.724524 0 0.707107 -0.707107 -0.0499376 0 -0.998752 
-0.0362262 -0.688297 -0.724524 -0.998752 0 -0.0499376 0 0 -1 
0 -0.688749 -0.724999 0 0 -1 0 -0.688749 -0.724999 
0 0 -1 0 -0.688749 -0.724999 0 0 -1 
0 -0.688749 -0.724999 0.0498755 -0.0498755 -0.997509 0.0353333 -0.706665 -0.706665 
0.706665 -0.0353333 -0.706665 -0.0362262 0.688297 -0.724524 0 0.688749 -0.724999 
0 0.688749 -0.724999 0 0.688749 -0.724999 -0.567227 0.567227 -0.597081 
-0.567227 0.567227 -0.597081 0 0 -1 0.567227 -0.567227 -0.597081 
-0.0498755 0.0498755 -0.997509 -0.706665 0.0353333 -0.706665 0.567227 -0.567227 -0.597081 
0 0 -1 0 0 -1 0 -0.688749 -0.724999 
0.0499376 0 -0.998752 0.0362262 -0.688297 -0.724524 0.707107 0 -0.707107 
-0.0353333 0.706665 -0.706665 0 0.688749 -0.724999 0 0.688749 -0.724999 
0.0362262 0.688297 -0.724524 -0.0498755 -0.0498755 -0.997509 -0.0498755 -0.997509 -0.0498755 
-0.706665 -0.706665 -0.0353333 0 -0.0499376 -0.998752 0 -0.998752 -0.0499376 
0 -0.0499376 -0.998752 0 -0.998752 -0.0499376 0.0498755 -0.0498755 -0.997509 
0.0498755 -0.997509 -0.0498755 0.997509 -0.0498755 -0.0498755 -0.0498755 -0.0498755 -0.997509 
-0.706665 -0.706665 -0.0353333 -0.706665 -0.706665 -0.0353333 0 0 -1 
0 0 -1 0 0 -1 0.0499376 0 -0.998752 
0.724524 -0.688297 -0.0362262 -0.0498755 -0.0498755 -0.997509 -0.0498755 -0.997509 -0.0498755 
-0.57735 -0.57735 -0.57735 0 -0.0499376 -0.998752 0 -0.998752 -0.0499376 
0 -0.0499376 -0.998752 0 -0.998752 -0.0499376 0 -0.0499376 -0.998752 
0 -0.998752 -0.0499376 0 -0.0499376 -0.998752 -0.688297 -0.724524 -0.0362262 
0 0 -1 0 0 -1 0 0 -1 
0 0 -1 0 0 -1 0.688297 -0.724524 -0.0362262 
0 -0.0499376 -0.998752 0.0498755 -0.0498755 -0.997509 0.0498755 -0.997509 -0.0498755 
0.997509 -0.0498755 -0.0498755 -0.0498755 -0.0498755 -0.997509 -0.57735 -0.57735 -0.57735 
-0.57735 -0.57735 -0.57735 0 0 -1 0 0 -1 
0 0 -1 0 0 -1 0 0 -1 
0 0 -1 0 0 -1 0 0 -1 
0 0 -1 0 0 -1 0 0 -1 
0.0499376 0 -0.998752 0.998752 0 -0.0499376 -0.0498755 -0.0498755 -0.997509 
-0.57735 -0.57735 -0.57735 -0.997509 -0.0498755 -0.0498755 0 0 -1 
0 0 -1 0 0 -1 0 0 -1 
0 0 -1 0 0 -1 0 0 -1 
0 0 -1 0 0 -1 0 0 -1 
0 0 -1 0 0 -1 0.0499376 0 -0.998752 
0.998752 0 -0.0499376 -0.0499376 0 -0.998752 -0.998752 0 -0.0499376 
0 0 -1 0 0 -1 0 0 -1 
0 0 -1 0 0 -1 0 0 -1 
0 0 -1 0 0 -1 0 0 -1 
0 0 -1 0 0 -1 0 0 -1 
0.0499376 0 -0.998752 0.998752 0 -0.0499376 -0.0499376 0 -0.998752 
-0.998752 0 -0.0499376 0 0 -1 0 0 -1 
0 0 -1 0 0 -1 0 0 -1 
0 0 -1 0 0 -1 0 0 -1 
0 0 -1 0 0 -1 0 0 -1 
0 0 -1 0.0499376 0 -0.998752 0.998752 0 -0.0499376 
-0.0499376 0 -0.998752 -0.707107 0 -0.707107 0 0 -1 
0 0 -1 0 0 -1 0 0 -1 
0 0 -1 0 0 -1 0 0 -1 
0 0 -1 0 0 -1 0 0 -1 
0 0 -1 0 0 -1 0.0499376 0 -0.998752 
0.998752 0 -0.0499376 -0.0499376 0 -0.998752 -0.586967 -0.557619 -0.586967 
0 0 -1 0 0 -1 0 0 -1 
0 0 -1 0 0 -1 0 0 -1 
0 0 -1 0 0 -1 0 0 -1 
0 0 -1 0 -0.688749 -0.724999 0 -0.688749 -0.724999 
0.0499376 0 -0.998752 0.998752 0 -0.0499376 -0.0499376 0 -0.998752 
-0.586967 -0.557619 -0.586967 -0.998752 0 -0.0499376 0 0 -1 
0 0 -1 0 0 -1 0 0 -1 
0 0 -1 0 0 -1 0 0 -1 
0 0 -1 0 0 -1 0 0 -1 
-0.688749 0 -0.724999 0.707107 0 -0.707107 0.998752 0 -0.0499376 
-0.724524 0.688297 -0.0362262 -0.724524 0.688297 -0.0362262 -0.0499376 0 -0.998752 
0 0 -1 0 0 -1 0 0 -1 
0 0 -1 0 0 -1 0 0 -1 
0 0 -1 0 0 -1 0 0 -1 
-0.688749 0 -0.724999 0.567227 0.567227 -0.597081 0.0498755 0.0498755 -0.997509 
0.997509 0.0498755 -0.0498755 -0.0499376 0 -0.998752 -0.998752 0 -0.0499376 
0 0 -1 0 0 -1 0 0 -1 
0 0 -1 0 0 -1 0 0 -1 
0 0 -1 0 0 -1 0 0 -1 
-0.688749 0 -0.724999 0.706665 0.0353333 -0.706665 0.706665 0.706665 -0.0353333 
0.706665 0.706665 -0.0353333 -0.0499376 0 -0.998752 -0.998752 0 -0.0499376 
0 0 -1 0 0 -1 0 0 -1 
0 0 -1 0 0 -1 0 0 -1 
0 0 -1 0 0 -1 0 0 -1 
0 0 -1 0.0362262 0.688297 -0.724524 0.724524 0.688297 -0.0362262 
0.706665 0.706665 -0.0353333 -0.0499376 0 -0.998752 -0.998752 0 -0.0499376 
0 0 -1 0 0 -1 0 0 -1 
0 0 -1 0 0 -1 0 0 -1 
0 0 -1 0 0 -1 0 0 -1 
0 0 -1 0.0499376 0 -0.998752 0.998752 0 -0.0499376 
-0.0499376 0 -0.998752 -0.998752 0 -0.0499376 0 0 -1 
0 0 -1 0 0 -1 0 0 -1 
0 0 -1 0 0 -1 0 0 -1 
0 0 -1 0 0 -1 0 0 -1 
0.0499376 0 -0.998752 0.998752 0 -0.0499376 -0.0499376 0 -0.998752 
-0.998752 0 -0.0499376 0 0 -1 0 0 -1 
0 0 -1 0 0 -1 0 0 -1 
0 0 -1 0 0 -1 0 0 -1 
0 0 -1 0 0 -1 0.0499376 0 -0.998752 
0.998752 0 -0.0499376 -0.0499376 0 -0.998752 -0.998752 0 -0.0499376 
0 0 -1 0 0 -1 0 0 -1 
0 0 -1 0 0 -1 0 0 -1 
0 0 -1 0 0 -1 0 0 -1 
0 0 -1 0.0499376 0 -0.998752 0.998752 0 -0.0499376 
-0.0524864 0.0524864 -0.997241 -0.998752 0.0499376 0 0 0.0499376 -0.998752 
0 0 -1 0 0 -1 0 0 -1 
0 0 -1 0 0 -1 0 0 -1 
0 0 -1 0 0 -1 0 0 -1 
0.0499376 0 -0.998752 0.998752 0 -0.0499376 -0.0499376 0.998752 0 
-0.688297 0.724524 -0.0362262 -0.724524 0.688297 -0.0362262 -0.0499376 0 -0.998752 
0 0 -1 0 0 -1 0 0 -1 
0 0 -1 0 0 -1 0 0 -1 
0 0 -1 0 0 -1 0.0499376 0 -0.998752 
0.998752 0 -0.0499376 -0.0499376 0 -0.998752 -0.998752 0 -0.0499376 
0 0 -1 0 0 -1 0 0 -1 
0 0 -1 0 0 -1 0 0 -1 
0 0 -1 0 0 -1 0.0499376 0 -0.998752 
0.998752 0 -0.0499376 -0.0499376 0 -0.998752 -0.998752 0 -0.0499376 
0 0 -1 0 0 -1 0 0 -1 
0 0 -1 0 0 -1 0 0 -1 
0 0 -1 0 0 -1 0.0499376 0 -0.998752 
0.998752 0 -0.0499376 -0.0499376 0 -0.998752 -0.998752 0 -0.0499376 
0 0 -1 0 0 -1 0 0 -1 
0 0 -1 0 0 -1 0 0 -1 
0 0 -1 0 0 -1 0.0499376 0 -0.998752 
0.998752 0 -0.0499376 -0.0499376 0 -0.998752 -0.998752 0 -0.0499376 
0 0 -1 0 0 -1 0 0 -1 
0 0 -1 0 0 -1 0 0 -1 
0 0 -1 0 0 -1 0.0499376 0 -0.998752 
0.998752 0 -0.0499376 -0.0499376 0 -0.998752 -0.998752 0 -0.0499376 
0 0 -1 0 0 -1 0 0 -1 
0 0 -1 0 0 -1 0 0 -1 
0 0 -1 0 0 -1 0.0499376 0 -0.998752 
0.998752 0 -0.0499376 -0.0499376 0 -0.998752 -0.998752 0 -0.0499376 
0 0 -1 0 0 -1 0 0 -1 
0 0 -1 0 0 -1 0 0 -1 
0 0 -1 0 0 -1 0.0499376 0 -0.998752 
0.998752 0 -0.0499376 -0.0499376 0 -0.998752 -0.998752 0 -0.0499376 
0 0 -1 0 0 -1 0 0 -1 
0 0 -1 0 0 -1 0 0 -1 
0 0 -1 0 0 -1 0.0499376 0 -0.998752 
0.998752 0 -0.0499376 -0.0362262 -0.688297 -0.724524 -0.998752 0 -0.0499376 
0 -0.688749 -0.724999 0 -0.688749 -0.724999 0 -0.688749 -0.724999 
0 -0.688749 -0.724999 0 -0.688749 -0.724999 0 0 -1 
0 0 -1 0 0 -1 0.0499376 0 -0.998752 
0.998752 0 -0.0499376 -1 0 0 0.688749 0 -0.724999 
0 0 -1 0 0 -1 0.0499376 0 -0.998752 