# vtk DataFile Version 3.0
vtk output
ASCII
DATASET POLYDATA
POINTS 6350 float
113 40 73.02 113 39.02 74 112.02 40 74 
114 40 73.02 114 39.02 74 114.98 40 74 
113 41 73.02 112.02 41 74 113.98 41 74 
114 40.98 74 113 41.98 74 112 40 74.02 
112 39.02 75 111.02 40 75 113 39.02 75 
114 40 74.98 113.98 40 75 111 41 74.02 
111 40.02 75 110.02 41 75 112 41 74.02 
113 40.98 75 112.98 41 75 113 41 74.98 
111 41.98 75 112 41.98 75 105 22 75.02 
105 21.02 76 104.02 22 76 106 22 75.02 
106 21.02 76 107 22 75.02 107 21.02 76 
108 22 75.02 108 21.02 76 109 22 75.02 
109 21.02 76 110 22 75.02 110 21.02 76 
111 22 75.02 111 21.02 76 112 22 75.02 
112 21.02 76 112.98 22 76 105 23 75.02 
104.02 23 76 106 23 75.02 107 23 75.02 
108 23 75.02 109 23 75.02 110 23 75.02 
111 23 75.02 112 23 75.02 112.98 23 76 
105 23.98 76 106 23.98 76 106.02 24 76 
107 24 75.02 108 24 75.02 109 24 75.02 
110 24 75.02 111 24 75.02 112 24 75.02 
113 23.02 76 113 24 75.02 114 24 75.02 
114 23.02 76 114.98 24 76 107 25 75.02 
106.02 25 76 108 25 75.02 109 25 75.02 
110 25 75.02 111 25 75.02 112 25 75.02 
113 25 75.02 114 25 75.02 114.98 25 76 
107 25.98 76 108 25.98 76 108.02 26 76 
109 26 75.02 110 26 75.02 111 26 75.02 
112 26 75.02 113 26 75.02 114 26 75.02 
114.98 26 76 109 27 75.02 108.02 27 76 
110 27 75.02 111 27 75.02 112 27 75.02 
113 27 75.02 113.98 27 76 114 26.98 76 
109 28 75.02 108.02 28 76 110 28 75.02 
111 28 75.02 112 28 75.02 112.98 28 76 
113 27.98 76 109 29 75.02 108.02 29 76 
110 29 75.02 111 29 75.02 112 29 75.02 
112.98 29 76 109 30 75.02 108.02 30 76 
110 30 75.02 111 30 75.02 112 30 75.02 
112.98 30 76 109 31 75.02 108.02 31 76 
110 31 75.02 111 31 75.02 112 31 75.02 
112.98 31 76 109 32 75.02 108.02 32 76 
110 32 75.02 111 32 75.02 112 32 75.02 
112.98 32 76 109 33 75.02 108.02 33 76 
110 33 75.02 111 33 75.02 112 33 75.02 
112.98 33 76 109 33.98 76 110 33.98 76 
110.02 34 76 111 34 75.02 112 34 75.02 
112.98 34 76 111 35 75.02 110.02 35 76 
112 35 75.02 112.98 35 76 111 36 75.02 
110.02 36 76 112 36 75.02 112.98 36 76 
111 37 75.02 110.02 37 76 112 37 75.02 
112.98 37 76 111 38 75.02 110.02 38 76 
112 38 75.02 112.98 38 76 111 39 75.02 
110.02 39 76 112 39 75.02 112.98 39 76 
111 40 75.02 110.02 40 76 112.98 40 76 
113 40 75.98 110.02 41 76 112.98 41 76 
111 42 75.02 110.02 42 76 112 42 75.02 
112.98 42 76 111 43 75.02 110.02 43 76 
111.98 43 76 112 42.98 76 111 43.98 76 
105 21.02 77 104.02 22 77 106 21.02 77 
107 21.02 77 108 21.02 77 109 21.02 77 
110 21.02 77 111 21.02 77 112 22 76.98 
111.98 22 77 104.02 23 77 112 22.02 77 
112.98 23 77 105 23.98 77 106 23.98 77 
106.02 24 77 113 23.02 77 114 23.02 77 
114.98 24 77 107 24.98 77 107 25 76.98 
107.02 25 77 114.98 25 77 107.02 26 77 
108 26 76.02 114.98 26 77 108 27 76.02 
107.02 27 77 113.98 27 77 114 26.98 77 
108 28 76.02 107.02 28 77 112.98 28 77 
113 27.98 77 108 29 76.02 107.02 29 77 
112.98 29 77 108 30 76.02 107.02 30 77 
112.98 30 77 108 31 76.02 107.02 31 77 
112.98 31 77 108 32 76.02 107.02 32 77 
112.98 32 77 108 33 76.02 107.02 33 77 
112.98 33 77 108 33.98 77 109 33.98 77 
110 34 76.02 109.02 34 77 112.98 34 77 
110 35 76.02 109.02 35 77 112.98 35 77 
110 36 76.02 109.02 36 77 112.98 36 77 
110 37 76.02 109.02 37 77 112.98 37 77 
110 38 76.02 109.02 38 77 112.98 38 77 
110 39 76.02 109.02 39 77 112.98 39 77 
110 39.98 77 110.02 40 77 112.98 40 77 
110.02 41 77 112.98 41 77 110.02 42 77 
112.98 42 77 110.02 43 77 111.98 43 77 
112 42.98 77 111 43.98 77 105 21.02 78 
104.02 22 78 106 21.02 78 107 21.02 78 
108 21.02 78 109 21.02 78 110 21.02 78 
111 22 77.98 110.98 22 78 104.02 23 78 
111 23 77.98 110.98 23 78 112 23 77.98 
105 23.98 78 106 23.98 78 107 23.98 78 
107 24 77.98 108 23.98 78 108 24 77.98 
108.02 24 78 111 23.02 78 112 23.02 78 
113 23.02 78 114 23.02 78 114.98 24 78 
108 25 77.98 108.02 25 78 114.98 25 78 
108 26 77.98 108.02 26 78 114.98 26 78 
108 26.02 78 107.02 27 78 113.98 27 78 
114 26.98 78 107 28 77.02 107 27.02 78 
106.02 28 78 112.98 28 78 113 27.98 78 
107 29 77.02 106.02 29 78 112.98 29 78 
107 30 77.02 106.02 30 78 112.98 30 78 
107 31 77.02 106.02 31 78 112.98 31 78 
107 32 77.02 106.02 32 78 112.98 32 78 
106 33 77.02 106 32.02 78 105.02 33 78 
107 33 77.02 112.98 33 78 106 33.98 78 
106.02 34 78 107 34 77.02 108 34 77.02 
109 34 77.02 112.98 34 78 107 35 77.02 
106.02 35 78 108 35 77.02 109 35 77.02 
112.98 35 78 107 35.98 78 108 35.98 78 
108.02 36 78 109 36 77.02 112.98 36 78 
109 37 77.02 108.02 37 78 112.98 37 78 
109 38 77.02 108.02 38 78 112.98 38 78 
109 39 77.02 108.02 39 78 112.98 39 78 
109 39.98 78 110 39.98 78 110.02 40 78 
112.98 40 78 110.02 41 78 112.98 41 78 
110.02 42 78 112.98 42 78 110.02 43 78 
111.98 43 78 112 42.98 78 111 43.98 78 
105 21.02 79 104.02 22 79 106 21.02 79 
107 21.02 79 108 21.02 79 109 21.02 79 
110 22 78.98 109.98 22 79 105 22.98 79 
105 23 78.98 106 22.98 79 106 23 78.98 
107 22.98 79 107 23 78.98 107.02 23 79 
110 22.02 79 110.98 23 79 108 23.98 79 
108.02 24 79 111 23.02 79 112 23.02 79 
113 23.02 79 114 23.02 79 114.98 24 79 
108.02 25 79 114.98 25 79 108.02 26 79 
114.98 26 79 108 27 78.98 108.02 27 79 
113.98 27 79 114 26.98 79 107 27.02 79 
106.02 28 79 108 27.02 79 112.98 28 79 
113 27.98 79 106.02 29 79 112.98 29 79 
106.02 30 79 112.98 30 79 106.02 31 79 
112.98 31 79 106.02 32 79 112.98 32 79 
106 33 78.98 106.02 33 79 112.98 33 79 
106.02 34 79 112.98 34 79 107 34.98 79 
107 35 78.98 108 34.98 79 108 35 78.98 
108.02 35 79 112.98 35 79 108.02 36 79 
112.98 36 79 108.02 37 79 112.98 37 79 
108.02 38 79 112.98 38 79 109 38.98 79 
109 39 78.98 109.02 39 79 112.98 39 79 
110 39.98 79 110.02 40 79 112.98 40 79 
110.02 41 79 112.98 41 79 110.02 42 79 
112 42 78.98 111.98 42 79 112 41.98 79 
111 42.98 79 111 43 78.98 105 22 79.98 
106 22 79.98 107 22 79.98 108 22 79.98 
109 22 79.98 108 23 79.98 109 23 79.98 
110 23 79.98 109 24 79.98 110 24 79.98 
111 23.02 80 110.02 24 80 112 23.02 80 
113 23.02 80 114 23.02 80 114.98 24 80 
109 25 79.98 110 25 79.98 110.02 25 80 
114.98 25 80 109 26 79.98 110 26 79.98 
110.02 26 80 114.98 26 80 109 27 79.98 
110 27 79.98 110.02 27 80 113.98 27 80 
114 26.98 80 107 28 79.98 108 28 79.98 
109 28 79.98 110 28 79.98 110.02 28 80 
112.98 28 80 113 27.98 80 107 29 79.98 
108 29 79.98 109 29 79.98 110 29 79.98 
110.02 29 80 112.98 29 80 107 30 79.98 
108 30 79.98 109 30 79.98 110 30 79.98 
110.02 30 80 112.98 30 80 107 31 79.98 
108 31 79.98 109 31 79.98 110 31 79.98 
110.02 31 80 112.98 31 80 107 32 79.98 
108 32 79.98 109 32 79.98 110 32 79.98 
110.02 32 80 112.98 32 80 107 33 79.98 
108 33 79.98 109 33 79.98 110 33 79.98 
110.02 33 80 112.98 33 80 107 34 79.98 
108 34 79.98 109 34 79.98 110 34 79.98 
110.02 34 80 112.98 34 80 109 35 79.98 
110 35 79.98 110.02 35 80 112.98 35 80 
109 36 79.98 110 36 79.98 110.02 36 80 
112.98 36 80 109 37 79.98 110 37 79.98 
110.02 37 80 112.98 37 80 109 38 79.98 
110 38 79.98 110.02 38 80 112.98 38 80 
110 39 79.98 110.02 39 80 112.98 39 80 
111 39.98 80 111 40 79.98 112 39.98 80 
112 40 79.98 113 39.02 80 112.02 40 80 
113 40 79.02 114 40 79.02 114 39.02 80 
114.98 40 80 111 41 79.98 112 41 79.98 
113 41 79.02 112.02 41 80 113.98 41 80 
114 40.98 80 111 42 79.98 113 41.98 80 
111 23.02 81 110.02 24 81 112 23.02 81 
113 23.02 81 114 23.02 81 114.98 24 81 
110.02 25 81 114.98 25 81 110.02 26 81 
114.98 26 81 110.02 27 81 114 27 80.02 
114.98 27 81 110.02 28 81 112.98 28 81 
113 27.98 81 114 27.98 81 110.02 29 81 
112.98 29 81 110.02 30 81 112.98 30 81 
110.02 31 81 112.98 31 81 110.02 32 81 
112.98 32 81 110.02 33 81 112.98 33 81 
110.02 34 81 112.98 34 81 110.02 35 81 
112.98 35 81 110.02 36 81 112.98 36 81 
110.02 37 81 112.98 37 81 110.02 38 81 
112.98 38 81 110.02 39 81 113 38.02 81 
113 39 80.02 113.98 39 81 111 39.98 81 
112 39.98 81 112.02 40 81 114 39.02 81 
114.98 40 81 112.02 41 81 113.98 41 81 
114 40.98 81 113 41.98 81 111 23.02 82 
110.02 24 82 112 23.02 82 113 23.02 82 
114 23.02 82 114.98 24 82 110.02 25 82 
114.98 25 82 110.02 26 82 115 25.02 82 
115 26 81.02 116 26 81.02 116 25.02 82 
116.98 26 82 110.02 27 82 115 27 81.02 
116 27 81.02 116.98 27 82 110.02 28 82 
113 28 81.02 114 28 81.02 115 28 81.02 
116 28 81.02 116.98 28 82 110.02 29 82 
113 29 81.02 114 29 81.02 115 29 81.02 
116 29 81.02 116.98 29 82 111 29.98 82 
111 30 81.98 112 29.98 82 112 30 81.98 
112.02 30 82 113 30 81.02 114 30 81.02 
115 30 81.02 116 30 81.02 116.98 30 82 
111 31 81.98 112 31 81.98 113 31 81.02 
112.02 31 82 114 31 81.02 115 31 81.02 
115.98 31 82 116 30.98 82 111 32 81.98 
112 32 81.98 113 32 81.02 112.02 32 82 
114 32 81.02 114.98 32 82 115 31.98 82 
111 33 81.98 112 33 81.98 113 33 81.02 
112.02 33 82 114 33 81.02 114.98 33 82 
111 34 81.98 112 34 81.98 113 34 81.02 
112.02 34 82 114 34 81.02 114.98 34 82 
111 35 81.98 112 35 81.98 113 35 81.02 
112.02 35 82 114 35 81.02 114.98 35 82 
111 36 81.98 112 36 81.98 113 36 81.02 
112.02 36 82 114 36 81.02 114.98 36 82 
111 37 81.98 111.02 37 82 112 36.02 82 
113 37 81.02 114 37 81.02 114.98 37 82 
111 37.02 82 110.02 38 82 113 38 81.02 
114 38 81.02 114.98 38 82 110.02 39 82 
114 39 81.02 114.98 39 82 111 39.98 82 
112 39.98 82 112.02 40 82 114.98 40 82 
112.02 41 82 113.98 41 82 114 40.98 82 
113 41.98 82 110 24 82.02 110 23.02 83 
109.02 24 83 111 23.02 83 112 23.02 83 
113 23.02 83 114 23.02 83 114.98 24 83 
110 25 82.02 109.02 25 83 114.98 25 83 
110 25.98 83 110.02 26 83 115 25.02 83 
116 25.02 83 116.98 26 83 110.02 27 83 
116.98 27 83 110.02 28 83 116.98 28 83 
110.02 29 83 116.98 29 83 111 29.98 83 
112 29.98 83 112.02 30 83 116.98 30 83 
112.02 31 83 115.98 31 83 116 30.98 83 
112.02 32 83 114.98 32 83 115 31.98 83 
112.02 33 83 114.98 33 83 112.02 34 83 
114.98 34 83 112.02 35 83 114.98 35 83 
112.02 36 83 114.98 36 83 112 36.02 83 
111.02 37 83 114.98 37 83 111 37.02 83 
110.02 38 83 114.98 38 83 110.02 39 83 
114.98 39 83 111 39.98 83 112 39.98 83 
112.02 40 83 114.98 40 83 112.02 41 83 
114 41 82.02 114.98 41 83 113 41.98 83 
114 41.98 83 110 24 83.98 110.02 24 84 
[...]
POINT_DATA 6350
SCALARS scalars float
LOOKUP_TABLE default
1 1 1 1 1 1 1 1 1 
1 1 1 1 1 1 1 1 1 
1 1 1 1 1 1 1 1 1 
1 1 1 1 1 1 1 1 1 
1 1 1 1 1 1 1 1 1 
1 1 1 1 1 1 1 1 1 
1 1 1 1 1 1 1 1 1 
1 1 1 1 1 1 1 1 1 
1 1 1 1 1 1 1 1 1 
1 1 1 1 1 1 1 1 1 
1 1 1 1 1 1 1 1 1 
1 1 1 1 1 1 1 1 1 
1 1 1 1 1 1 1 1 1 
1 1 1 1 1 1 1 1 1 
1 1 1 1 1 1 1 1 1 
1 1 1 1 1 1 1 1 1 
1 1 1 1 1 1 1 1 1 
1 1 1 1 1 1 1 1 1 
1 1 1 1 1 1 1 1 1 
1 1 1 1 1 1 1 1 1 
1 1 1 1 1 1 1 1 1 
1 1 1 1 1 1 1 1 1 
1 1 1 1 1 1 1 1 1 
1 1 1 1 1 1 1 1 1 
1 1 1 1 1 1 1 1 1 
1 1 1 1 1 1 1 1 1 
1 1 1 1 1 1 1 1 1 
1 1 1 1 1 1 1 1 1 
1 1 1 1 1 1 1 1 1 
1 1 1 1 1 1 1 1 1 
1 1 1 1 1 1 1 1 1 
1 1 1 1 1 1 1 1 1 
1 1 1 1 1 1 1 1 1 
1 1 1 1 1 1 1 1 1 
1 1 1 1 1 1 1 1 1 
1 1 1 1 1 1 1 1 1 
1 1 1 1 1 1 1 1 1 
1 1 1 1 1 1 1 1 1 
1 1 1 1 1 1 1 1 1 
1 1 1 1 1 1 1 1 1 
1 1 1 1 1 1 1 1 1 
1 1 1 1 1 1 1 1 1 
1 1 1 1 1 1 1 1 1 
1 1 1 1 1 1 1 1 1 
1 1 1 1 1 1 1 1 1 
1 1 1 1 1 1 1 1 1 
1 1 1 1 1 1 1 1 1 
1 1 1 1 1 1 1 1 1 
1 1 1 1 1 1 1 1 1 
1 1 1 1 1 1 1 1 1 
1 1 1 1 1 1 1 1 1 
1 1 1 1 1 1 1 1 1 
1 1 1 1 1 1 1 1 1 
1 1 1 1 1 1 1 1 1 
1 1 1 1 1 1 1 1 1 
1 1 1 1 1 1 1 1 1 
1 1 1 1 1 1 1 1 1 
1 1 1 1 1 1 1 1 1 
1 1 1 1 1 1 1 1 1 
1 1 1 1 1 1 1 1 1 
1 1 1 1 1 1 1 1 1 
1 1 1 1 1 1 1 1 1 
1 1 1 1 1 1 1 1 1 
1 1 1 1 1 1 1 1 1 
1 1 1 1 1 1 1 1 1 
1 1 1 1 1 1 1 1 1 
1 1 1 1 1 1 1 1 1 
1 1 1 1 1 1 1 1 1 
1 1 1 1 1 1 1 1 1 
1 1 1 1 1 1 1 1 1 
1 1 1 1 1 1 1 1 1 
1 1 1 1 1 1 1 1 1 
1 1 1 1 1 1 1 1 1 
1 1 1 1 1 1 1 1 1 
1 1 1 1 1 1 1 1 1 
1 1 1 1 1 1 1 1 1 
1 1 1 1 1 1 1 1 1 
1 1 1 1 1 1 1 1 1 
1 1 1 1 1 1 1 1 1 
1 1 1 1 1 1 1 1 1 
1 1 1 1 1 1 1 1 1 
1 1 1 1 1 1 1 1 1 
1 1 1 1 1 1 1 1 1 
1 1 1 1 1 1 1 1 1 
1 1 1 1 1 1 1 1 1 
1 1 1 1 1 1 1 1 1 
1 1 1 1 1 1 1 1 1 
1 1 1 1 1 1 1 1 1 
1 1 1 1 1 1 1 1 1 
1 1 1 1 1 1 1 1 1 
1 1 1 1 1 1 1 1 1 
1 1 1 1 1 1 1 1 1 
1 1 1 1 1 1 1 1 1 
1 1 1 1 1 1 1 1 1 
1 1 1 1 1 1 1 1 1 
1 1 1 1 1 1 1 1 1 
1 1 1 1 1 1 1 1 1 
1 1 1 1 1 1 1 1 1 
1 1 1 1 1 1 1 1 1 
1 1 1 1 1 1 1 1 1 
1 1 1 1 1 1 1 1 1 
1 1 1 1 1 1 1 1 1 
1 1 1 1 1 1 1 1 1 
1 1 1 1 1 1 1 1 1 
1 1 1 1 1 1 1 1 1 
1 1 1 1 1 1 1 1 1 
1 1 1 1 1 1 1 1 1 
1 1 1 1 1 1 1 1 1 
1 1 1 1 1 1 1 1 1 
1 1 1 1 1 1 1 1 1 
1 1 1 1 1 1 1 1 1 
1 1 1 1 1 1 1 1 1 
1 1 1 1 1 1 1 1 1 
1 1 1 1 1 1 1 1 1 
1 1 1 1 1 1 1 1 1 
1 1 1 1 1 1 1 1 1 
1 1 1 1 1 1 1 1 1 
1 1 1 1 1 1 1 1 1 
1 1 1 1 1 1 1 1 1 
1 1 1 1 1 1 1 1 1 
1 1 1 1 1 1 1 1 1 
1 1 1 1 1 1 1 1 1 
1 1 1 1 1 1 1 1 1 
1 1 1 1 1 1 1 1 1 
1 1 1 1 1 1 1 1 1 
1 1 1 1 1 1 1 1 1 
1 1 1 1 1 1 1 1 1 
1 1 1 1 1 1 1 1 1 
1 1 1 1 1 1 1 1 1 
1 1 1 1 1 1 1 1 1 
1 1 1 1 1 1 1 1 1 
1 1 1 1 1 1 1 1 1 
1 1 1 1 1 1 1 1 1 
1 1 1 1 1 1 1 1 1 
1 1 1 1 1 1 1 1 1 
1 1 1 1 1 1 1 1 1 
1 1 1 1 1 1 1 1 1 
1 1 1 1 1 1 1 1 1 
1 1 1 1 1 1 1 1 1 
1 1 1 1 1 1 1 1 1 
1 1 1 1 1 1 1 1 1 
1 1 1 1 1 1 1 1 1 
1 1 1 1 1 1 1 1 1 
1 1 1 1 1 1 1 1 1 
1 1 1 1 1 1 1 1 1 
1 1 1 1 1 1 1 1 1 
1 1 1 1 1 1 1 1 1 
1 1 1 1 1 1 1 1 1 
1 1 1 1 1 1 1 1 1 
1 1 1 1 1 1 1 1 1 
1 1 1 1 1 1 1 1 1 
1 1 1 1 1 1 1 1 1 
1 1 1 1 1 1 1 1 1 
1 1 1 1 1 1 1 1 1 
1 1 1 1 1 1 1 1 1 
1 1 1 1 1 1 1 1 1 
1 1 1 1 1 1 1 1 1 
1 1 1 1 1 1 1 1 1 
1 1 1 1 1 1 1 1 1 
1 1 1 1 1 1 1 1 1 
1 1 1 1 1 1 1 1 1 
1 1 1 1 1 1 1 1 1 
1 1 1 1 1 1 1 1 1 
1 1 1 1 1 1 1 1 1 
1 1 1 1 1 1 1 1 1 
1 1 1 1 1 1 1 1 1 
1 1 1 1 1 1 1 1 1 
1 1 1 1 1 1 1 1 1 
1 1 1 1 1 1 1 1 1 
1 1 1 1 1 1 1 1 1 
1 1 1 1 1 1 1 1 1 
1 1 1 1 1 1 1 1 1 
1 1 1 1 1 1 1 1 1 
1 1 1 1 1 1 1 1 1 
1 1 1 1 1 1 1 1 1 
1 1 1 1 1 1 1 1 1 
1 1 1 1 1 1 1 1 1 
1 1 1 1 1 1 1 1 1 
1 1 1 1 1 1 1 1 1 
1 1 1 1 1 1 1 1 1 
1 1 1 1 1 1 1 1 1 
1 1 1 1 1 1 1 1 1 
1 1 1 1 1 1 1 1 1 
1 1 1 1 1 1 1 1 1 
1 1 1 1 1 1 1 1 1 
1 1 1 1 1 1 1 1 1 
1 1 1 1 1 1 1 1 1 
1 1 1 1 1 1 1 1 1 
1 1 1 1 1 1 1 1 1 
1 1 1 1 1 1 1 1 1 
1 1 1 1 1 1 1 1 1 
1 1 1 1 1 1 1 1 1 
1 1 1 1 1 1 1 1 1 
1 1 1 1 1 1 1 1 1 
1 1 1 1 1 1 1 1 1 
1 1 1 1 1 1 1 1 1 
1 1 1 1 1 1 1 1 1 
1 1 1 1 1 1 1 1 1 
1 1 1 1 1 1 1 1 1 
1 1 1 1 1 1 1 1 1 
1 1 1 1 1 1 1 1 1 
1 1 1 1 1 1 1 1 1 
1 1 1 1 1 1 1 1 1 
1 1 1 1 1 1 1 1 1 
1 1 1 1 1 1 1 1 1 
1 1 1 1 1 1 1 1 1 
1 1 1 1 1 1 1 1 1 
1 1 1 1 1 1 1 1 1 
1 1 1 1 1 1 1 1 1 
1 1 1 1 1 1 1 1 1 
1 1 1 1 1 1 1 1 1 
1 1 1 1 1 1 1 1 1 
1 1 1 1 1 1 1 1 1 
1 1 1 1 1 1 1 1 1 
1 1 1 1 1 1 1 1 1 
1 1 1 1 1 1 1 1 1 
1 1 1 1 1 1 1 1 1 
1 1 1 1 1 1 1 1 1 
1 1 1 1 1 1 1 1 1 
1 1 1 1 1 1 1 1 1 
1 1 1 1 1 1 1 1 1 
1 1 1 1 1 1 1 1 1 
1 1 1 1 1 1 1 1 1 
1 1 1 1 1 1 1 1 1 
1 1 1 1 1 1 1 1 1 
1 1 1 1 1 1 1 1 1 
1 1 1 1 1 1 1 1 1 
1 1 1 1 1 1 1 1 1 
1 1 1 1 1 1 1 1 1 
1 1 1 1 1 1 1 1 1 
1 1 1 1 1 1 1 1 1 
1 1 1 1 1 1 1 1 1 
1 1 1 1 1 1 1 1 1 
1 1 1 1 1 1 1 1 1 
1 1 1 1 1 1 1 1 1 
1 1 1 1 1 1 1 1 1 
1 1 1 1 1 1 1 1 1 
1 1 1 1 1 1 1 1 1 
1 1 1 1 1 1 1 1 1 
1 1 1 1 1 1 1 1 1 
1 1 1 1 1 1 1 1 1 
1 1 1 1 1 1 1 1 1 
1 1 1 1 1 1 1 1 1 
1 1 1 1 1 1 1 1 1 
1 1 1 1 1 1 1 1 1 
1 1 1 1 1 1 1 1 1 
1 1 1 1 1 1 1 1 1 
1 1 1 1 1 1 1 1 1 
1 1 1 1 1 1 1 1 1 
1 1 1 1 1 1 1 1 1 
1 1 1 1 1 1 1 1 1 
1 1 1 1 1 1 1 1 1 
1 1 1 1 1 1 1 1 1 
1 1 1 1 1 1 1 1 1 
1 1 1 1 1 1 1 1 1 
1 1 1 1 1 1 1 1 1 
1 1 1 1 1 1 1 1 1 
1 1 1 1 1 1 1 1 1 
1 1 1 1 1 1 1 1 1 
1 1 1 1 1 1 1 1 1 
1 1 1 1 1 1 1 1 1 
1 1 1 1 1 1 1 1 1 
1 1 1 1 1 1 1 1 1 
1 1 1 1 1 1 1 1 1 
1 1 1 1 1 1 1 1 1 
1 1 1 1 1 1 1 1 1 
1 1 1 1 1 1 1 1 1 
1 1 1 1 1 1 1 1 1 
1 1 1 1 1 1 1 1 1 
1 1 1 1 1 1 1 1 1 
1 1 1 1 1 1 1 1 1 
1 1 1 1 1 1 1 1 1 
1 1 1 1 1 1 1 1 1 
1 1 1 1 1 1 1 1 1 
1 1 1 1 1 1 1 1 1 
1 1 1 1 1 1 1 1 1 
1 1 1 1 1 1 1 1 1 
1 1 1 1 1 1 1 1 1 
1 1 1 1 1 1 1 1 1 
1 1 1 1 1 1 1 1 1 
1 1 1 1 1 1 1 1 1 
1 1 1 1 1 1 1 1 1 
1 1 1 1 1 1 1 1 1 
1 1 1 1 1 1 1 1 1 
1 1 1 1 1 1 1 1 1 
1 1 1 1 1 1 1 1 1 
1 1 1 1 1 1 1 1 1 
1 1 1 1 1 1 1 1 1 
1 1 1 1 1 1 1 1 1 
1 1 1 1 1 1 1 1 1 
1 1 1 1 1 1 1 1 1 
1 1 1 1 1 1 1 1 1 
1 1 1 1 1 1 1 1 1 
1 1 1 1 1 1 1 1 1 
1 1 1 1 1 1 1 1 1 
1 1 1 1 1 1 1 1 1 
1 1 1 1 1 1 1 1 1 
1 1 1 1 1 1 1 1 1 
1 1 1 1 1 1 1 1 1 
1 1 1 1 1 1 1 1 1 
1 1 1 1 1 1 1 1 1 
1 1 1 1 1 1 1 1 1 
1 1 1 1 1 1 1 1 1 
1 1 1 1 1 1 1 1 1 
1 1 1 1 1 1 1 1 1 
1 1 1 1 1 1 1 1 1 
1 1 1 1 1 1 1 1 1 
1 1 1 1 1 1 1 1 1 
1 1 1 1 1 1 1 1 1 
1 1 1 1 1 1 1 1 1 
1 1 1 1 1 1 1 1 1 
1 1 1 1 1 1 1 1 1 
1 1 1 1 1 1 1 1 1 
1 1 1 1 1 1 1 1 1 
1 1 1 1 1 1 1 1 1 
1 1 1 1 1 1 1 1 1 
1 1 1 1 1 1 1 1 1 
1 1 1 1 1 1 1 1 1 
1 1 1 1 1 1 1 1 1 
1 1 1 1 1 1 1 1 1 
1 1 1 1 1 1 1 1 1 
1 1 1 1 1 1 1 1 1 
1 1 1 1 1 1 1 1 1 
1 1 1 1 1 1 1 1 1 
1 1 1 1 1 1 1 1 1 
1 1 1 1 1 1 1 1 1 
1 1 1 1 1 1 1 1 1 
1 1 1 1 1 1 1 1 1 
1 1 1 1 1 1 1 1 1 
1 1 1 1 1 1 1 1 1 
1 1 1 1 1 1 1 1 1 
1 1 1 1 1 1 1 1 1 
1 1 1 1 1 1 1 1 1 
1 1 1 1 1 1 1 1 1 
1 1 1 1 1 1 1 1 1 
1 1 1 1 1 1 1 1 1 
1 1 1 1 1 1 1 1 1 
1 1 1 1 1 1 1 1 1 
1 1 1 1 1 1 1 1 1 
1 1 1 1 1 1 1 1 1 
1 1 1 1 1 1 1 1 1 
1 1 1 1 1 1 1 1 1 
1 1 1 1 1 1 1 1 1 
1 1 1 1 1 1 1 1 1 
1 1 1 1 1 1 1 1 1 
1 1 1 1 1 1 1 1 1 
1 1 1 1 1 1 1 1 1 
1 1 1 1 1 1 1 1 1 
1 1 1 1 1 1 1 1 1 
1 1 1 1 1 1 1 1 1 
1 1 1 1 1 1 1 1 1 
1 1 1 1 1 1 1 1 1 
1 1 1 1 1 1 1 1 1 
1 1 1 1 1 1 1 1 1 
1 1 1 1 1 1 1 1 1 
1 1 1 1 1 1 1 1 1 
1 1 1 1 1 1 1 1 1 
1 1 1 1 1 1 1 1 1 
1 1 1 1 1 1 1 1 1 
1 1 1 1 1 1 1 1 1 
1 1 1 1 1 1 1 1 1 
1 1 1 1 1 1 1 1 1 
1 1 1 1 1 1 1 1 1 
1 1 1 1 1 1 1 1 1 
1 1 1 1 1 1 1 1 1 
1 1 1 1 1 1 1 1 1 
1 1 1 1 1 1 1 1 1 
1 1 1 1 1 1 1 1 1 
1 1 1 1 1 1 1 1 1 
1 1 1 1 1 1 1 1 1 
1 1 1 1 1 1 1 1 1 
1 1 1 1 1 1 1 1 1 
1 1 1 1 1 1 1 1 1 
1 1 1 1 1 1 1 1 1 
1 1 1 1 1 1 1 1 1 
1 1 1 1 1 1 1 1 1 
1 1 1 1 1 1 1 1 1 
1 1 1 1 1 1 1 1 1 
1 1 1 1 1 1 1 1 1 
1 1 1 1 1 1 1 1 1 
1 1 1 1 1 1 1 1 1 
1 1 1 1 1 1 1 1 1 
1 1 1 1 1 1 1 1 1 
1 1 1 1 1 1 1 1 1 
1 1 1 1 1 1 1 1 1 
1 1 1 1 1 1 1 1 1 
1 1 1 1 1 1 1 1 1 
1 1 1 1 1 1 1 1 1 
1 1 1 1 1 1 1 1 1 
1 1 1 1 1 1 1 1 1 
1 1 1 1 1 1 1 1 1 
1 1 1 1 1 1 1 1 1 
1 1 1 1 1 1 1 1 1 
1 1 1 1 1 1 1 1 1 
1 1 1 1 1 1 1 1 1 
1 1 1 1 1 1 1 1 1 
1 1 1 1 1 1 1 1 1 
1 1 1 1 1 1 1 1 1 
1 1 1 1 1 1 1 1 1 
1 1 1 1 1 1 1 1 1 
1 1 1 1 1 1 1 1 1 
1 1 1 1 1 1 1 1 1 
1 1 1 1 1 1 1 1 1 
1 1 1 1 1 1 1 1 1 
1 1 1 1 1 1 1 1 1 
1 1 1 1 1 1 1 1 1 
1 1 1 1 1 1 1 1 1 
1 1 1 1 1 1 1 1 1 
1 1 1 1 1 1 1 1 1 
1 1 1 1 1 1 1 1 1 
1 1 1 1 1 1 1 1 1 
1 1 1 1 1 1 1 1 1 
1 1 1 1 1 1 1 1 1 
1 1 1 1 1 1 1 1 1 
1 1 1 1 1 1 1 1 1 
1 1 1 1 1 1 1 1 1 
1 1 1 1 1 1 1 1 1 
1 1 1 1 1 1 1 1 1 
1 1 1 1 1 1 1 1 1 
1 1 1 1 1 1 1 1 1 
1 1 1 1 1 1 1 1 1 
1 1 1 1 1 1 1 1 1 
1 1 1 1 1 1 1 1 1 
1 1 1 1 1 1 1 1 1 
1 1 1 1 1 1 1 1 1 
1 1 1 1 1 1 1 1 1 
1 1 1 1 1 1 1 1 1 
1 1 1 1 1 1 1 1 1 
1 1 1 1 1 1 1 1 1 
1 1 1 1 1 1 1 1 1 
1 1 1 1 1 1 1 1 1 
1 1 1 1 1 1 1 1 1 
1 1 1 1 1 1 1 1 1 
1 1 1 1 1 1 1 1 1 
1 1 1 1 1 1 1 1 1 
1 1 1 1 1 1 1 1 1 
1 1 1 1 1 1 1 1 1 
1 1 1 1 1 1 1 1 1 
1 1 1 1 1 1 1 1 1 
1 1 1 1 1 1 1 1 1 
1 1 1 1 1 1 1 1 1 
1 1 1 1 1 1 1 1 1 
1 1 1 1 1 1 1 1 1 
1 1 1 1 1 1 1 1 1 
1 1 1 1 1 1 1 1 1 
1 1 1 1 1 1 1 1 1 
1 1 1 1 1 1 1 1 1 
1 1 1 1 1 1 1 1 1 
1 1 1 1 1 1 1 1 1 
1 1 1 1 1 1 1 1 1 
1 1 1 1 1 1 1 1 1 
1 1 1 1 1 1 1 1 1 
1 1 1 1 1 1 1 1 1 
1 1 1 1 1 1 1 1 1 
1 1 1 1 1 1 1 1 1 
1 1 1 1 1 1 1 1 1 
1 1 1 1 1 1 1 1 1 
1 1 1 1 1 1 1 1 1 
1 1 1 1 1 1 1 1 1 
1 1 1 1 1 1 1 1 1 
1 1 1 1 1 1 1 1 1 
1 1 1 1 1 1 1 1 1 
1 1 1 1 1 1 1 1 1 
1 1 1 1 1 1 1 1 1 
1 1 1 1 1 1 1 1 1 
1 1 1 1 1 1 1 1 1 
1 1 1 1 1 1 1 1 1 
1 1 1 1 1 1 1 1 1 
1 1 1 1 1 1 1 1 1 
1 1 1 1 1 1 1 1 1 
1 1 1 1 1 1 1 1 1 
1 1 1 1 1 1 1 1 1 
1 1 1 1 1 1 1 1 1 
1 1 1 1 1 1 1 1 1 
1 1 1 1 1 1 1 1 1 
1 1 1 1 1 1 1 1 1 
1 1 1 1 1 1 1 1 1 
1 1 1 1 1 1 1 1 1 
1 1 1 1 1 1 1 1 1 
1 1 1 1 1 1 1 1 1 
1 1 1 1 1 1 1 1 1 
1 1 1 1 1 1 1 1 1 
1 1 1 1 1 1 1 1 1 
1 1 1 1 1 1 1 1 1 
1 1 1 1 1 1 1 1 1 
1 1 1 1 1 1 1 1 1 
1 1 1 1 1 1 1 1 1 
1 1 1 1 1 1 1 1 1 
1 1 1 1 1 1 1 1 1 
1 1 1 1 1 1 1 1 1 
1 1 1 1 1 1 1 1 1 
1 1 1 1 1 1 1 1 1 
1 1 1 1 1 1 1 1 1 
1 1 1 1 1 1 1 1 1 
1 1 1 1 1 1 1 1 1 
1 1 1 1 1 1 1 1 1 
1 1 1 1 1 1 1 1 1 
1 1 1 1 1 1 1 1 1 
1 1 1 1 1 1 1 1 1 
1 1 1 1 1 1 1 1 1 
1 1 1 1 1 1 1 1 1 
1 1 1 1 1 1 1 1 1 
1 1 1 1 1 1 1 1 1 
1 1 1 1 1 1 1 1 1 
1 1 1 1 1 1 1 1 1 
1 1 1 1 1 1 1 1 1 
1 1 1 1 1 1 1 1 1 
1 1 1 1 1 1 1 1 1 
1 1 1 1 1 1 1 1 1 
1 1 1 1 1 1 1 1 1 
1 1 1 1 1 1 1 1 1 
1 1 1 1 1 1 1 1 1 
1 1 1 1 1 1 1 1 1 
1 1 1 1 1 1 1 1 1 
1 1 1 1 1 1 1 1 1 
1 1 1 1 1 1 1 1 1 
1 1 1 1 1 1 1 1 1 
1 1 1 1 1 1 1 1 1 
1 1 1 1 1 1 1 1 1 
1 1 1 1 1 1 1 1 1 
1 1 1 1 1 1 1 1 1 
1 1 1 1 1 1 1 1 1 
1 1 1 1 1 1 1 1 1 
1 1 1 1 1 1 1 1 1 
1 1 1 1 1 1 1 1 1 
1 1 1 1 1 1 1 1 1 
1 1 1 1 1 1 1 1 1 
1 1 1 1 1 1 1 1 1 
1 1 1 1 1 1 1 1 1 
1 1 1 1 1 1 1 1 1 
1 1 1 1 1 1 1 1 1 
1 1 1 1 1 1 1 1 1 
1 1 1 1 1 1 1 1 1 
1 1 1 1 1 1 1 1 1 
1 1 1 1 1 1 1 1 1 
1 1 1 1 1 1 1 1 1 
1 1 1 1 1 1 1 1 1 
1 1 1 1 1 1 1 1 1 
1 1 1 1 1 1 1 1 1 
1 1 1 1 1 1 1 1 1 
1 1 1 1 1 1 1 1 1 
1 1 1 1 1 1 1 1 1 
1 1 1 1 1 1 1 1 1 
1 1 1 1 1 1 1 1 1 
1 1 1 1 1 1 1 1 1 
1 1 1 1 1 1 1 1 1 
1 1 1 1 1 1 1 1 1 
1 1 1 1 1 1 1 1 1 
1 1 1 1 1 1 1 1 1 
1 1 1 1 1 1 1 1 1 
1 1 1 1 1 1 1 1 1 
1 1 1 1 1 1 1 1 1 
1 1 1 1 1 1 1 1 1 
1 1 1 1 1 1 1 1 1 
1 1 1 1 1 1 1 1 1 
1 1 1 1 1 1 1 1 1 
1 1 1 1 1 1 1 1 1 
1 1 1 1 1 1 1 1 1 
1 1 1 1 1 1 1 1 1 
1 1 1 1 1 1 1 1 1 
1 1 1 1 1 1 1 1 1 
1 1 1 1 1 1 1 1 1 
1 1 1 1 1 1 1 1 1 
1 1 1 1 1 1 1 1 1 
1 1 1 1 1 1 1 1 1 
1 1 1 1 1 1 1 1 1 
1 1 1 1 1 1 1 1 1 
1 1 1 1 1 1 1 1 1 
1 1 1 1 1 1 1 1 1 
1 1 1 1 1 1 1 1 1 
1 1 1 1 1 1 1 1 1 
1 1 1 1 1 1 1 1 1 
1 1 1 1 1 1 1 1 1 
1 1 1 1 1 1 1 1 1 
1 1 1 1 1 1 1 1 1 
1 1 1 1 1 1 1 1 1 
1 1 1 1 1 1 1 1 1 
1 1 1 1 1 1 1 1 1 
1 1 1 1 1 1 1 1 1 
1 1 1 1 1 1 1 1 1 
1 1 1 1 1 1 1 1 1 
1 1 1 1 1 1 1 1 1 
1 1 1 1 1 1 1 1 1 
1 1 1 1 1 1 1 1 1 
1 1 1 1 1 1 1 1 1 
1 1 1 1 1 1 1 1 1 
1 1 1 1 1 1 1 1 1 
1 1 1 1 1 1 1 1 1 
1 1 1 1 1 1 1 1 1 
1 1 1 1 1 1 1 1 1 
1 1 1 1 1 1 1 1 1 
1 1 1 1 1 1 1 1 1 
1 1 1 1 1 1 1 1 1 
1 1 1 1 1 1 1 1 1 
1 1 1 1 1 1 1 1 1 
1 1 1 1 1 1 1 1 1 
1 1 1 1 1 1 1 1 1 
1 1 1 1 1 1 1 1 1 
1 1 1 1 1 1 1 1 1 
1 1 1 1 1 1 1 1 1 
1 1 1 1 1 1 1 1 1 
1 1 1 1 1 1 1 1 1 
1 1 1 1 1 1 1 1 1 
1 1 1 1 1 1 1 1 1 
1 1 1 1 1 1 1 1 1 
1 1 1 1 1 1 1 1 1 
1 1 1 1 1 1 1 1 1 
1 1 1 1 1 1 1 1 1 
1 1 1 1 1 1 1 1 1 
1 1 1 1 1 1 1 1 1 
1 1 1 1 1 1 1 1 1 
1 1 1 1 1 1 1 1 1 
1 1 1 1 1 1 1 1 1 
1 1 1 1 1 1 1 1 1 
1 1 1 1 1 1 1 1 1 
1 1 1 1 1 1 1 1 1 
1 1 1 1 1 1 1 1 1 
1 1 1 1 1 1 1 1 1 
1 1 1 1 1 1 1 1 1 
1 1 1 1 1 1 1 1 1 
1 1 1 1 1 1 1 1 1 
1 1 1 1 1 1 1 1 1 
1 1 1 1 1 1 1 1 1 
1 1 1 1 1 1 1 1 1 
1 1 1 1 1 1 1 1 1 
1 1 1 1 1 1 1 1 1 
1 1 1 1 1 1 1 1 1 
1 1 1 1 1 1 1 1 1 
1 1 1 1 1 1 1 1 1 
1 1 1 1 1 1 1 1 1 
1 1 1 1 1 1 1 1 1 
1 1 1 1 1 1 1 1 1 
1 1 1 1 1 1 1 1 1 
1 1 1 1 1 1 1 1 1 
1 1 1 1 1 1 1 1 1 
1 1 1 1 1 1 1 1 1 
1 1 1 1 1 1 1 1 1 
1 1 1 1 1 1 1 1 1 
1 1 1 1 1 1 1 1 1 
1 1 1 1 1 1 1 1 1 
1 1 1 1 1 1 1 1 1 
1 1 1 1 1 1 1 1 1 
1 1 1 1 1 1 1 1 1 
1 1 1 1 1 1 1 1 1 
1 1 1 1 1 1 1 1 1 
1 1 1 1 1 1 1 1 1 
1 1 1 1 1 1 1 1 1 
1 1 1 1 1 1 1 1 1 
1 1 1 1 1 1 1 1 1 
1 1 1 1 1 1 1 1 1 
1 1 1 1 1 1 1 1 1 
1 1 1 1 1 1 1 1 1 
1 1 1 1 1 1 1 1 1 
1 1 1 1 1 1 1 1 1 
1 1 1 1 1 1 1 1 1 
1 1 1 1 1 1 1 1 1 
1 1 1 1 1 1 1 1 1 
1 1 1 1 1 1 1 1 1 
1 1 1 1 1 1 1 1 1 
1 1 1 1 1 1 1 1 1 
1 1 1 1 1 1 1 1 1 
1 1 1 1 1 1 1 1 1 
1 1 1 1 1 1 1 1 1 
1 1 1 1 1 1 1 1 1 
1 1 1 1 1 1 1 1 1 
1 1 1 1 1 1 1 1 1 
1 1 1 1 1 1 1 1 1 
1 1 1 1 1 1 1 1 1 
1 1 1 1 1 1 1 1 1 
1 1 1 1 1 1 1 1 1 
1 1 1 1 1 1 1 1 1 
1 1 1 1 1 1 1 1 1 
1 1 1 1 1 1 1 1 1 
1 1 1 1 1 1 1 1 1 
1 1 1 1 1 1 1 1 1 
1 1 1 1 1 1 1 1 1 
1 1 1 1 1 1 1 1 1 
1 1 1 1 1 1 1 1 1 
1 1 1 1 1 1 1 1 1 
1 1 1 1 1 1 1 1 1 
1 1 1 1 1 1 1 1 1 
1 1 1 1 1 1 1 1 1 
1 1 1 1 1 1 1 1 1 
1 1 1 1 1 1 1 1 1 
1 1 1 1 1 1 1 1 1 
1 1 1 1 1 1 1 1 1 
1 1 1 1 1 1 1 1 1 
1 1 1 1 1 1 1 1 1 
1 1 1 1 1 1 1 1 1 
1 1 1 1 1 1 1 1 1 
1 1 1 1 1 1 1 1 1 
1 1 1 1 1 1 1 1 1 
1 1 1 1 1 1 1 1 1 
1 1 1 1 1 1 1 1 1 
1 1 1 1 1 1 1 1 1 
1 1 1 1 1 1 1 1 1 
1 1 1 1 1 1 1 1 1 
1 1 1 1 1 1 1 1 1 
1 1 1 1 1 1 1 1 1 
1 1 1 1 1 1 1 1 1 
1 1 1 1 1 1 1 1 1 
1 1 1 1 1 1 1 1 1 
1 1 1 1 1 1 1 1 1 
1 1 1 1 1 1 1 1 1 
1 1 1 1 1 1 1 1 1 
1 1 1 1 1 
NORMALS normals float
-0.019992 -0.019992 -0.9996 -0.019992 -0.9996 -0.019992 -0.707036 -0.0141407 -0.707036 
0.0204039 0 -0.999792 0.0204039 -0.999792 0 1 0 0 
0 0.0204039 -0.999792 -0.707033 0.0144292 -0.707033 0.699929 0.714213 0 
0.714213 0.699929 0 0 1 0 -0.707036 -0.0141407 -0.707036 
-0.0141407 -0.707036 -0.707036 -0.57735 -0.57735 -0.57735 0.0203997 -0.999584 0.0203997 
0.714213 0 0.699929 0.707107 0 0.707107 -0.019996 0 -0.9998 
-0.581199 -0.569575 -0.581199 -0.9998 0 -0.019996 -0.69246 0.0144262 -0.721312 
0.581199 0.569575 0.581199 0.585045 0.585045 0.561644 0.573423 0.585126 0.573423 
-0.0142828 0.699857 -0.71414 0.0141407 0.707036 -0.707036 -0.019992 -0.019992 -0.9996 
-0.019992 -0.9996 -0.019992 -0.9996 -0.019992 -0.019992 0 -0.019996 -0.9998 
0 -0.9998 -0.019996 0 -0.019996 -0.9998 0 -0.9998 -0.019996 
0 -0.019996 -0.9998 0 -0.9998 -0.019996 0 -0.019996 -0.9998 
0 -0.9998 -0.019996 0 -0.019996 -0.9998 0 -0.9998 -0.019996 
0 -0.019996 -0.9998 0 -0.9998 -0.019996 0.0203997 -0.0203997 -0.999584 
0.019996 -0.9998 0 0.9998 -0.019996 0 -0.019992 0.019992 -0.9996 
-0.9996 0.019992 -0.019992 0 0.019996 -0.9998 0 0 -1 
0 0 -1 0 0 -1 0 0 -1 
0 0 -1 0.019996 0 -0.9998 0.71414 -0.699857 -0.0142828 
-0.019992 0.9996 -0.019992 -0.699857 0.71414 -0.0142828 -0.71414 0.699857 -0.0142828 
-0.019996 0 -0.9998 0 0 -1 0 0 -1 
0 0 -1 0 0 -1 0 0 -1 
0.699857 -0.71414 -0.0142828 0 -0.019996 -0.9998 0.019992 -0.019992 -0.9996 
0.019992 -0.9996 -0.019992 0.9996 -0.019992 -0.019992 -0.0203997 0.0203997 -0.999584 
-0.9998 0.019996 0 0 0.019996 -0.9998 0 0 -1 
0 0 -1 0 0 -1 0 0 -1 
0 0 -1 0.019996 0 -0.9998 0.9998 0 -0.019996 
-0.019996 0.9998 0 -0.569575 0.581199 -0.581199 -0.581199 0.569575 -0.581199 
-0.019996 0 -0.9998 0 0 -1 0 0 -1 
0 0 -1 0 0 -1 0.019992 0.019992 -0.9996 
0.9996 0.019992 -0.019992 -0.019996 0 -0.9998 -0.707107 0 -0.707107 
0 0 -1 0 0 -1 0 0 -1 
0.019992 0.019992 -0.9996 0.707036 0.707036 -0.0141407 0.707036 0.707036 -0.0141407 
-0.019996 0 -0.9998 -0.707107 0 -0.707107 0 0 -1 
0 0 -1 0.019996 0 -0.9998 0.71414 0.699857 -0.0142828 
0.707036 0.707036 -0.0141407 -0.019996 0 -0.9998 -0.707107 0 -0.707107 
0 0 -1 0 0 -1 0.019996 0 -0.9998 
0.9998 0 -0.019996 -0.019996 0 -0.9998 -0.707107 0 -0.707107 
0 0 -1 0 0 -1 0.019996 0 -0.9998 
0.9998 0 -0.019996 -0.019996 0 -0.9998 -0.707107 0 -0.707107 
0 0 -1 0 0 -1 0.019996 0 -0.9998 
0.9998 0 -0.019996 -0.019996 0 -0.9998 -0.707107 0 -0.707107 
0 0 -1 0 0 -1 0.019996 0 -0.9998 
0.9998 0 -0.019996 -0.019992 0.019992 -0.9996 -0.707036 0.0141407 -0.707036 
0 0.019996 -0.9998 0 0 -1 0.019996 0 -0.9998 
0.9998 0 -0.019996 -0.019992 0.9996 -0.019992 -0.569575 0.581199 -0.581199 
-0.581199 0.569575 -0.581199 -0.019996 0 -0.9998 0.019996 0 -0.9998 
0.9998 0 -0.019996 -0.019996 0 -0.9998 -0.707107 0 -0.707107 
0.019996 0 -0.9998 0.9998 0 -0.019996 -0.019996 0 -0.9998 
-0.707107 0 -0.707107 0.019996 0 -0.9998 0.9998 0 -0.019996 
-0.019996 0 -0.9998 -0.707107 0 -0.707107 0.019996 0 -0.9998 
0.9998 0 -0.019996 -0.019996 0 -0.9998 -0.707107 0 -0.707107 
0.019996 0 -0.9998 0.9998 0 -0.019996 -0.019996 0 -0.9998 
-0.707107 0 -0.707107 0.0142828 -0.699857 -0.71414 0.9998 0 -0.019996 
-0.581199 -0.569575 -0.581199 -0.9998 0 -0.019996 0.714213 0 0.699929 
0.707107 0 0.707107 -1 0 0 1 0 0 
-0.0142828 0.699857 -0.71414 -0.9998 0 -0.019996 0.0141407 0.707036 -0.707036 
0.9996 0.019992 -0.019992 0 0.019996 -0.9998 -0.999584 0.0203997 -0.0203997 
0.699857 0.71414 -0.0142828 0.707036 0.707036 -0.0141407 0 0.9998 -0.019996 
-0.019996 -0.9998 0 -0.9998 -0.019996 0 0 -1 0 
0 -1 0 0 -1 0 0 -1 0 
0 -1 0 0.019992 -0.9996 0.019992 0.581199 -0.581199 0.569575 
0.57735 -0.57735 0.57735 -0.9998 0.019996 0 0.57735 -0.57735 0.57735 
0.707036 -0.707036 0.0141407 -0.019996 0.9998 0 -0.699929 0.714213 0 
-0.707036 0.707036 0.0141407 0.699929 -0.714213 0 0.019996 -0.9998 0 
0.9998 -0.019996 0 -0.57735 0.57735 0.57735 -0.581199 0.581199 0.569575 
-0.581199 0.569575 0.581199 1 0 0 -1 0 0 
-0.585126 0.573423 -0.573423 0.9998 0.019996 0 -0.707107 0 -0.707107 
-0.9998 0 -0.019996 0.707107 0.707107 0 0.707107 0.707107 0 
-0.707107 0 -0.707107 -0.707107 0 -0.707107 0.714213 0.699929 0 
0.707107 0.707107 0 -0.707107 0 -0.707107 -0.707107 0 -0.707107 
1 0 0 -0.707107 0 -0.707107 -0.707107 0 -0.707107 
1 0 0 -0.707107 0 -0.707107 -0.707107 0 -0.707107 
1 0 0 -0.707107 0 -0.707107 -0.707107 0 -0.707107 
1 0 0 -0.707036 0.0141407 -0.707036 -0.707036 0.0141407 -0.707036 
1 0 0 -0.0141407 0.707036 -0.707036 -0.573423 0.585126 -0.573423 
-0.581199 0.569575 -0.581199 -0.581199 0.569575 -0.581199 1 0 0 
-0.707107 0 -0.707107 -0.707107 0 -0.707107 1 0 0 
-0.707107 0 -0.707107 -0.707107 0 -0.707107 1 0 0 
-0.707107 0 -0.707107 -0.707107 0 -0.707107 1 0 0 
-0.707107 0 -0.707107 -0.707107 0 -0.707107 1 0 0 
-0.707036 0.0141407 -0.707036 -0.707036 0.0141407 -0.707036 1 0 0 
-0.707036 0.707036 -0.0141407 -0.714213 0.699929 0 1 0 0 
-1 0 0 1 0 0 -1 0 0 
0.9998 0.019996 0 -0.999792 0.0204039 0 0.699929 0.714213 0 
0.707107 0.707107 0 0 1 0 -0.019996 -0.9998 0 
-0.9998 -0.019996 0 0 -1 0 0 -1 0 
0 -1 0 0 -1 0 0.019992 -0.9996 0.019992 
0.707036 -0.0141407 0.707036 0.707036 -0.0141407 0.707036 -0.9996 0.019992 0.019992 
0.573423 -0.573423 0.585126 0.585126 -0.573423 0.573423 0.0141407 -0.707036 0.707036 
-0.019992 0.9996 0.019992 0 0.9998 0.019996 0 0.707107 0.707107 
-0.0141407 0.707036 0.707036 -0.573423 0.585126 0.573423 -0.573423 0.573423 0.585126 
-0.585126 0.573423 0.573423 0.573423 -0.585126 0.573423 0 -0.714213 0.699929 
0 -1 0 0.019996 -0.9998 0 0.9998 -0.019996 0 
-0.707107 0 0.707107 -0.714213 0 0.699929 1 0 0 
-0.585126 -0.573423 0.573423 -0.585126 -0.573423 0.573423 0.9998 0.019996 0 
-0.57735 -0.57735 0.57735 -0.707036 -0.707036 0.0141407 0.707107 0.707107 0 
0.707107 0.707107 0 -0.707036 -0.0141407 -0.707036 -0.707036 -0.707036 -0.0141407 
-0.9996 -0.019992 -0.019992 0.714213 0.699929 0 0.707107 0.707107 0 
-0.707107 0 -0.707107 -0.9998 0 -0.019996 1 0 0 
-0.707107 0 -0.707107 -0.9998 0 -0.019996 1 0 0 
-0.707107 0 -0.707107 -0.9998 0 -0.019996 1 0 0 
-0.707107 0 -0.707107 -0.71414 -0.699857 -0.0142828 1 0 0 
-0.0204039 0 -0.999792 -0.714213 -0.699929 0 -1 0 0 
-0.699929 0 -0.714213 1 0 0 -0.714213 0.699929 0 
-0.71414 0.699857 -0.0142828 -0.019996 0 -0.9998 0 0.699929 -0.714213 
-0.573423 0.573423 -0.585126 1 0 0 -0.0203997 0.0203997 -0.999584 
-0.9998 0.019996 0 0 0.0204039 -0.999792 -0.699929 0 -0.714213 
1 0 0 -0.019996 0.9998 0 -0.699929 0.714213 0 
-0.71414 0.699857 -0.0142828 -0.707107 0 -0.707107 1 0 0 