# vtk DataFile Version 3.0
vtk output
ASCII
DATASET POLYDATA
POINTS 6060 float
51 66 11.0097 51 65.0097 12 50.0097 66 12 
52 66 11.0097 52 65.0097 12 53 66 11.0097 
53 65.0097 12 54 66 11.0097 54 65.0097 12 
55 66 11.0097 55 65.0097 12 56 66 11.0097 
56 65.0097 12 56.9903 66 12 51 67 11.0097 
50.0097 67 12 52 67 11.0097 53 67 11.0097 
54 67 11.0097 55 67 11.0097 56 67 11.0097 
56.9903 67 12 51 68 11.0097 50.0097 68 12 
52 68 11.0097 53 68 11.0097 54 68 11.0097 
55 68 11.0097 56 68 11.0097 56.9903 68 12 
61 68 11.0097 61 67.0097 12 60.0097 68 12 
62 68 11.0097 62 67.0097 12 63 68 11.0097 
63 67.0097 12 64 68 11.0097 64 67.0097 12 
65 68 11.0097 65 67.0097 12 66 68 11.0097 
66 67.0097 12 67 68 11.0097 67 67.0097 12 
68 68 11.0097 68 67.0097 12 68.9903 68 12 
51 69 11.0097 50.0097 69 12 52 69 11.0097 
53 69 11.0097 54 69 11.0097 55 69 11.0097 
56 69 11.0097 56.9903 69 12 60 69 11.0097 
60 68.0097 12 59.0097 69 12 61 69 11.0097 
62 69 11.0097 63 69 11.0097 64 69 11.0097 
65 69 11.0097 66 69 11.0097 67 69 11.0097 
68 69 11.0097 68.9903 69 12 51 70 11.0097 
50.0097 70 12 52 70 11.0097 53 70 11.0097 
54 70 11.0097 55 70 11.0097 56 70 11.0097 
57 69.0097 12 57 70 11.0097 58 70 11.0097 
58 69.0097 12 59 70 11.0097 59 69.0097 12 
60 70 11.0097 61 70 11.0097 62 70 11.0097 
63 70 11.0097 64 70 11.0097 65 70 11.0097 
66 70 11.0097 67 70 11.0097 68 70 11.0097 
69 69.0097 12 69 70 11.0097 70 70 11.0097 
70 69.0097 12 70.9903 70 12 51 71 11.0097 
50.0097 71 12 52 71 11.0097 53 71 11.0097 
54 71 11.0097 55 71 11.0097 56 71 11.0097 
57 71 11.0097 58 71 11.0097 59 71 11.0097 
60 71 11.0097 61 71 11.0097 62 71 11.0097 
63 71 11.0097 64 71 11.0097 65 71 11.0097 
66 71 11.0097 67 71 11.0097 68 71 11.0097 
69 71 11.0097 70 71 11.0097 70.9903 71 12 
51 72 11.0097 50.0097 72 12 52 72 11.0097 
53 72 11.0097 54 72 11.0097 55 72 11.0097 
56 72 11.0097 57 72 11.0097 58 72 11.0097 
59 72 11.0097 60 72 11.0097 61 72 11.0097 
62 72 11.0097 63 72 11.0097 64 72 11.0097 
65 72 11.0097 66 72 11.0097 67 72 11.0097 
68 72 11.0097 69 72 11.0097 70 72 11.0097 
70.9903 72 12 51 73 11.0097 50.0097 73 12 
52 73 11.0097 53 73 11.0097 54 73 11.0097 
55 73 11.0097 56 73 11.0097 57 73 11.0097 
58 73 11.0097 59 73 11.0097 60 73 11.0097 
61 73 11.0097 62 73 11.0097 63 73 11.0097 
64 73 11.0097 65 73 11.0097 66 73 11.0097 
67 73 11.0097 68 73 11.0097 69 73 11.0097 
70 73 11.0097 70.9903 73 12 51 74 11.0097 
50.0097 74 12 52 74 11.0097 53 74 11.0097 
54 74 11.0097 55 74 11.0097 56 74 11.0097 
57 74 11.0097 58 74 11.0097 59 74 11.0097 
60 74 11.0097 61 74 11.0097 62 74 11.0097 
63 74 11.0097 64 74 11.0097 65 74 11.0097 
66 74 11.0097 67 74 11.0097 68 74 11.0097 
69 74 11.0097 70 74 11.0097 70.9903 74 12 
51 75 11.0097 50.0097 75 12 52 75 11.0097 
53 75 11.0097 54 75 11.0097 55 75 11.0097 
56 75 11.0097 57 75 11.0097 58 75 11.0097 
59 75 11.0097 60 75 11.0097 61 75 11.0097 
62 75 11.0097 63 75 11.0097 64 75 11.0097 
65 75 11.0097 66 75 11.0097 67 75 11.0097 
68 75 11.0097 69 75 11.0097 70 75 11.0097 
70.9903 75 12 51 76 11.0097 50.0097 76 12 
52 76 11.0097 53 76 11.0097 54 76 11.0097 
55 76 11.0097 56 76 11.0097 57 76 11.0097 
58 76 11.0097 59 76 11.0097 60 76 11.0097 
61 76 11.0097 62 76 11.0097 63 76 11.0097 
64 76 11.0097 65 76 11.0097 66 76 11.0097 
67 76 11.0097 68 76 11.0097 69 76 11.0097 
70 76 11.0097 70.9903 76 12 51 77 11.0097 
50.0097 77 12 52 77 11.0097 53 77 11.0097 
54 77 11.0097 55 77 11.0097 56 77 11.0097 
57 77 11.0097 58 77 11.0097 59 77 11.0097 
60 77 11.0097 61 77 11.0097 62 77 11.0097 
63 77 11.0097 64 77 11.0097 65 77 11.0097 
66 77 11.0097 67 77 11.0097 68 77 11.0097 
69 77 11.0097 69.9903 77 12 70 76.9903 12 
51 77.9903 12 52 77.9903 12 53 77.9903 12 
54 77.9903 12 54.0097 78 12 55 78 11.0097 
56 78 11.0097 57 78 11.0097 58 78 11.0097 
59 78 11.0097 60 78 11.0097 61 78 11.0097 
62 78 11.0097 62.9903 78 12 63 77.9903 12 
64 77.9903 12 65 77.9903 12 66 77.9903 12 
67 77.9903 12 68 77.9903 12 69 77.9903 12 
55 79 11.0097 54.0097 79 12 56 79 11.0097 
57 79 11.0097 58 79 11.0097 59 79 11.0097 
60 79 11.0097 61 79 11.0097 61.9903 79 12 
62 78.9903 12 55 79.9903 12 56 79.9903 12 
57 79.9903 12 58 79.9903 12 59 79.9903 12 
60 79.9903 12 61 79.9903 12 51 65 12.0097 
51 64.0097 13 50.0097 65 13 52 65 12.0097 
52 64.0097 13 53 65 12.0097 53 64.0097 13 
54 65 12.0097 54 64.0097 13 55 65 12.0097 
55 64.0097 13 56 65 12.0097 56 64.0097 13 
56.9903 65 13 50 66 12.0097 50 65.0097 13 
49.0097 66 13 56.9903 66 13 50 67 12.0097 
49.0097 67 13 56.9903 67 13 60 67 12.0097 
60 66.0097 13 59.0097 67 13 61 67 12.0097 
61 66.0097 13 62 67 12.0097 62 66.0097 13 
63 67 12.0097 63 66.0097 13 64 67 12.0097 
64 66.0097 13 65 67 12.0097 65 66.0097 13 
66 67 12.0097 66 66.0097 13 67 67 12.0097 
67 66.0097 13 68 67 12.0097 68 66.0097 13 
68.9903 67 13 50 68 12.0097 49.0097 68 13 
56.9903 68 13 60 68 12.0097 59.0097 68 13 
68.9903 68 13 50 69 12.0097 49.0097 69 13 
57 68.0097 13 57 69 12.0097 58 69 12.0097 
58 68.0097 13 59 69 12.0097 59 68.0097 13 
69 68.0097 13 69 69 12.0097 70 69 12.0097 
70 68.0097 13 70.9903 69 13 50 70 12.0097 
49.0097 70 13 70.9903 70 13 50 71 12.0097 
49.0097 71 13 70.9903 71 13 50 72 12.0097 
49.0097 72 13 70.9903 72 13 50 73 12.0097 
49.0097 73 13 70.9903 73 13 50 74 12.0097 
49.0097 74 13 70.9903 74 13 50 75 12.0097 
49.0097 75 13 70.9903 75 13 50 76 12.0097 
49.0097 76 13 70.9903 76 13 50 77 12.0097 
49.0097 77 13 70 77 12.0097 70.9903 77 13 
50 77.9903 13 51 77.9903 13 52 77.9903 13 
53 77.9903 13 54 78 12.0097 53.0097 78 13 
62.9903 78 13 63 77.9903 13 64 77.9903 13 
65 77.9903 13 66 77.9903 13 67 77.9903 13 
68 77.9903 13 69 77.9903 13 70 77.9903 13 
54 79 12.0097 53.0097 79 13 62 79 12.0097 
62.9903 79 13 54 79.9903 13 55 79.9903 13 
56 79.9903 13 57 79.9903 13 58 79.9903 13 
59 79.9903 13 60 79.9903 13 61 79.9903 13 
62 79.9903 13 55 60 13.0097 55 59.0097 14 
54.0097 60 14 56 60 13.0097 56 59.0097 14 
57 60 13.0097 57 59.0097 14 58 60 13.0097 
58 59.0097 14 59 60 13.0097 59 59.0097 14 
60 60 13.0097 60 59.0097 14 61 60 13.0097 
61 59.0097 14 62 60 13.0097 62 59.0097 14 
63 60 13.0097 63 59.0097 14 64 60 13.0097 
64 59.0097 14 64.9903 60 14 54 61 13.0097 
54 60.0097 14 53.0097 61 14 55 61 13.0097 
56 61 13.0097 57 61 13.0097 58 61 13.0097 
59 61 13.0097 60 61 13.0097 61 61 13.0097 
62 61 13.0097 63 61 13.0097 64 61 13.0097 
64.9903 61 14 51 62 13.0097 51 61.0097 14 
50.0097 62 14 52 62 13.0097 52 61.0097 14 
53 62 13.0097 53 61.0097 14 54 62 13.0097 
55 62 13.0097 56 62 13.0097 57 62 13.0097 
58 62 13.0097 59 62 13.0097 60 62 13.0097 
61 62 13.0097 62 62 13.0097 63 62 13.0097 
64 62 13.0097 65 61.0097 14 65 62 13.0097 
66 62 13.0097 66 61.0097 14 66.9903 62 14 
51 63 13.0097 50.0097 63 14 52 63 13.0097 
53 63 13.0097 54 63 13.0097 55 63 13.0097 
56 63 13.0097 57 63 13.0097 58 63 13.0097 
59 63 13.0097 60 63 13.0097 61 63 13.0097 
62 63 13.0097 63 63 13.0097 64 63 13.0097 
65 63 13.0097 66 63 13.0097 66.9903 63 14 
51 64 13.0097 50.0097 64 14 52 64 13.0097 
53 64 13.0097 54 64 13.0097 55 64 13.0097 
56 64 13.0097 57 64 13.0097 58 64 13.0097 
59 64 13.0097 60 64 13.0097 61 64 13.0097 
62 64 13.0097 63 64 13.0097 64 64 13.0097 
65 64 13.0097 66 64 13.0097 67 63.0097 14 
67 64 13.0097 68 64 13.0097 68 63.0097 14 
69 64 13.0097 69 63.0097 14 70 64 13.0097 
70 63.0097 14 70.9903 64 14 50 65 13.0097 
50 64.0097 14 49.0097 65 14 57 65 13.0097 
58 65 13.0097 59 65 13.0097 60 65 13.0097 
61 65 13.0097 62 65 13.0097 63 65 13.0097 
64 65 13.0097 65 65 13.0097 66 65 13.0097 
67 65 13.0097 68 65 13.0097 69 65 13.0097 
70 65 13.0097 70.9903 65 14 49 66 13.0097 
49 65.0097 14 48.0097 66 14 57 66 13.0097 
58 66 13.0097 59 66 13.0097 60 66 13.0097 
61 66 13.0097 62 66 13.0097 63 66 13.0097 
64 66 13.0097 65 66 13.0097 66 66 13.0097 
67 66 13.0097 68 66 13.0097 69 66 13.0097 
70 66 13.0097 71 65.0097 14 71 66 13.0097 
72 66 13.0097 72 65.0097 14 73 66 13.0097 
73 65.0097 14 74 66 13.0097 74 65.0097 14 
75 66 13.0097 75 65.0097 14 76 66 13.0097 
76 65.0097 14 76.9903 66 14 48 67 13.0097 
48 66.0097 14 47.0097 67 14 49 67 13.0097 
57 67 13.0097 58 67 13.0097 59 67 13.0097 
69 67 13.0097 70 67 13.0097 71 67 13.0097 
72 67 13.0097 73 67 13.0097 74 67 13.0097 
75 67 13.0097 76 67 13.0097 76.9903 67 14 
47 68 13.0097 47 67.0097 14 46.0097 68 14 
48 68 13.0097 49 68 13.0097 57 68 13.0097 
58 68 13.0097 59 68 13.0097 69 68 13.0097 
70 68 13.0097 71 68 13.0097 72 68 13.0097 
73 68 13.0097 74 68 13.0097 75 68 13.0097 
76 68 13.0097 76.9903 68 14 47 69 13.0097 
46.0097 69 14 48 69 13.0097 49 69 13.0097 
71 69 13.0097 72 69 13.0097 73 69 13.0097 
74 69 13.0097 75 69 13.0097 75.9903 69 14 
76 68.9903 14 47 70 13.0097 46.0097 70 14 
48 70 13.0097 49 70 13.0097 71 70 13.0097 
72 70 13.0097 73 70 13.0097 74 70 13.0097 
74.9903 70 14 75 69.9903 14 47 71 13.0097 
46.0097 71 14 48 71 13.0097 49 71 13.0097 
71 71 13.0097 72 71 13.0097 73 71 13.0097 
73.9903 71 14 74 70.9903 14 47 72 13.0097 
46.0097 72 14 48 72 13.0097 49 72 13.0097 
71 72 13.0097 72 72 13.0097 72.9903 72 14 
73 71.9903 14 47 73 13.0097 46.0097 73 14 
48 73 13.0097 49 73 13.0097 71 73 13.0097 
72 73 13.0097 72.9903 73 14 47 74 13.0097 
46.0097 74 14 48 74 13.0097 49 74 13.0097 
71 74 13.0097 72 74 13.0097 72.9903 74 14 
47 75 13.0097 46.0097 75 14 48 75 13.0097 
49 75 13.0097 71 75 13.0097 72 75 13.0097 
72.9903 75 14 47 76 13.0097 46.0097 76 14 
48 76 13.0097 49 76 13.0097 71 76 13.0097 
72 76 13.0097 72.9903 76 14 47 77 13.0097 
46.0097 77 14 48 77 13.0097 49 77 13.0097 
71 77 13.0097 72 77 13.0097 72.9903 77 14 
47 77.9903 14 48 77.9903 14 48.0097 78 14 
49 78 13.0097 50 78 13.0097 51 78 13.0097 
52 78 13.0097 53 78 13.0097 63 78 13.0097 
64 78 13.0097 65 78 13.0097 66 78 13.0097 
67 78 13.0097 68 78 13.0097 69 78 13.0097 
70 78 13.0097 71 78 13.0097 72 78 13.0097 
72.9903 78 14 49 79 13.0097 48.0097 79 14 
50 79 13.0097 51 79 13.0097 52 79 13.0097 
53 79 13.0097 63 79 13.0097 64 79 13.0097 
65 79 13.0097 66 79 13.0097 67 79 13.0097 
68 79 13.0097 69 79 13.0097 70 79 13.0097 
[...]
POINT_DATA 6060
SCALARS scalars float
LOOKUP_TABLE default
1 1 1 1 1 1 1 1 1 
1 1 1 1 1 1 1 1 1 
1 1 1 1 1 1 1 1 1 
1 1 1 1 1 1 1 1 1 
1 1 1 1 1 1 1 1 1 
1 1 1 1 1 1 1 1 1 
1 1 1 1 1 1 1 1 1 
1 1 1 1 1 1 1 1 1 
1 1 1 1 1 1 1 1 1 
1 1 1 1 1 1 1 1 1 
1 1 1 1 1 1 1 1 1 
1 1 1 1 1 1 1 1 1 
1 1 1 1 1 1 1 1 1 
1 1 1 1 1 1 1 1 1 
1 1 1 1 1 1 1 1 1 
1 1 1 1 1 1 1 1 1 
1 1 1 1 1 1 1 1 1 
1 1 1 1 1 1 1 1 1 
1 1 1 1 1 1 1 1 1 
1 1 1 1 1 1 1 1 1 
1 1 1 1 1 1 1 1 1 
1 1 1 1 1 1 1 1 1 
1 1 1 1 1 1 1 1 1 
1 1 1 1 1 1 1 1 1 
1 1 1 1 1 1 1 1 1 
1 1 1 1 1 1 1 1 1 
1 1 1 1 1 1 1 1 1 
1 1 1 1 1 1 1 1 1 
1 1 1 1 1 1 1 1 1 
1 1 1 1 1 1 1 1 1 
1 1 1 1 1 1 1 1 1 
1 1 1 1 1 1 1 1 1 
1 1 1 1 1 1 1 1 1 
1 1 1 1 1 1 1 1 1 
1 1 1 1 1 1 1 1 1 
1 1 1 1 1 1 1 1 1 
1 1 1 1 1 1 1 1 1 
1 1 1 1 1 1 1 1 1 
1 1 1 1 1 1 1 1 1 
1 1 1 1 1 1 1 1 1 
1 1 1 1 1 1 1 1 1 
1 1 1 1 1 1 1 1 1 
1 1 1 1 1 1 1 1 1 
1 1 1 1 1 1 1 1 1 
1 1 1 1 1 1 1 1 1 
1 1 1 1 1 1 1 1 1 
1 1 1 1 1 1 1 1 1 
1 1 1 1 1 1 1 1 1 
1 1 1 1 1 1 1 1 1 
1 1 1 1 1 1 1 1 1 
1 1 1 1 1 1 1 1 1 
1 1 1 1 1 1 1 1 1 
1 1 1 1 1 1 1 1 1 
1 1 1 1 1 1 1 1 1 
1 1 1 1 1 1 1 1 1 
1 1 1 1 1 1 1 1 1 
1 1 1 1 1 1 1 1 1 
1 1 1 1 1 1 1 1 1 
1 1 1 1 1 1 1 1 1 
1 1 1 1 1 1 1 1 1 
1 1 1 1 1 1 1 1 1 
1 1 1 1 1 1 1 1 1 
1 1 1 1 1 1 1 1 1 
1 1 1 1 1 1 1 1 1 
1 1 1 1 1 1 1 1 1 
1 1 1 1 1 1 1 1 1 
1 1 1 1 1 1 1 1 1 
1 1 1 1 1 1 1 1 1 
1 1 1 1 1 1 1 1 1 
1 1 1 1 1 1 1 1 1 
1 1 1 1 1 1 1 1 1 
1 1 1 1 1 1 1 1 1 
1 1 1 1 1 1 1 1 1 
1 1 1 1 1 1 1 1 1 
1 1 1 1 1 1 1 1 1 
1 1 1 1 1 1 1 1 1 
1 1 1 1 1 1 1 1 1 
1 1 1 1 1 1 1 1 1 
1 1 1 1 1 1 1 1 1 
1 1 1 1 1 1 1 1 1 
1 1 1 1 1 1 1 1 1 
1 1 1 1 1 1 1 1 1 
1 1 1 1 1 1 1 1 1 
1 1 1 1 1 1 1 1 1 
1 1 1 1 1 1 1 1 1 
1 1 1 1 1 1 1 1 1 
1 1 1 1 1 1 1 1 1 
1 1 1 1 1 1 1 1 1 
1 1 1 1 1 1 1 1 1 
1 1 1 1 1 1 1 1 1 
1 1 1 1 1 1 1 1 1 
1 1 1 1 1 1 1 1 1 
1 1 1 1 1 1 1 1 1 
1 1 1 1 1 1 1 1 1 
1 1 1 1 1 1 1 1 1 
1 1 1 1 1 1 1 1 1 
1 1 1 1 1 1 1 1 1 
1 1 1 1 1 1 1 1 1 
1 1 1 1 1 1 1 1 1 
1 1 1 1 1 1 1 1 1 
1 1 1 1 1 1 1 1 1 
1 1 1 1 1 1 1 1 1 
1 1 1 1 1 1 1 1 1 
1 1 1 1 1 1 1 1 1 
1 1 1 1 1 1 1 1 1 
1 1 1 1 1 1 1 1 1 
1 1 1 1 1 1 1 1 1 
1 1 1 1 1 1 1 1 1 
1 1 1 1 1 1 1 1 1 
1 1 1 1 1 1 1 1 1 
1 1 1 1 1 1 1 1 1 
1 1 1 1 1 1 1 1 1 
1 1 1 1 1 1 1 1 1 
1 1 1 1 1 1 1 1 1 
1 1 1 1 1 1 1 1 1 
1 1 1 1 1 1 1 1 1 
1 1 1 1 1 1 1 1 1 
1 1 1 1 1 1 1 1 1 
1 1 1 1 1 1 1 1 1 
1 1 1 1 1 1 1 1 1 
1 1 1 1 1 1 1 1 1 
1 1 1 1 1 1 1 1 1 
1 1 1 1 1 1 1 1 1 
1 1 1 1 1 1 1 1 1 
1 1 1 1 1 1 1 1 1 
1 1 1 1 1 1 1 1 1 
1 1 1 1 1 1 1 1 1 
1 1 1 1 1 1 1 1 1 
1 1 1 1 1 1 1 1 1 
1 1 1 1 1 1 1 1 1 
1 1 1 1 1 1 1 1 1 
1 1 1 1 1 1 1 1 1 
1 1 1 1 1 1 1 1 1 
1 1 1 1 1 1 1 1 1 
1 1 1 1 1 1 1 1 1 
1 1 1 1 1 1 1 1 1 
1 1 1 1 1 1 1 1 1 
1 1 1 1 1 1 1 1 1 
1 1 1 1 1 1 1 1 1 
1 1 1 1 1 1 1 1 1 
1 1 1 1 1 1 1 1 1 
1 1 1 1 1 1 1 1 1 
1 1 1 1 1 1 1 1 1 
1 1 1 1 1 1 1 1 1 
1 1 1 1 1 1 1 1 1 
1 1 1 1 1 1 1 1 1 
1 1 1 1 1 1 1 1 1 
1 1 1 1 1 1 1 1 1 
1 1 1 1 1 1 1 1 1 
1 1 1 1 1 1 1 1 1 
1 1 1 1 1 1 1 1 1 
1 1 1 1 1 1 1 1 1 
1 1 1 1 1 1 1 1 1 
1 1 1 1 1 1 1 1 1 
1 1 1 1 1 1 1 1 1 
1 1 1 1 1 1 1 1 1 
1 1 1 1 1 1 1 1 1 
1 1 1 1 1 1 1 1 1 
1 1 1 1 1 1 1 1 1 
1 1 1 1 1 1 1 1 1 
1 1 1 1 1 1 1 1 1 
1 1 1 1 1 1 1 1 1 
1 1 1 1 1 1 1 1 1 
1 1 1 1 1 1 1 1 1 
1 1 1 1 1 1 1 1 1 
1 1 1 1 1 1 1 1 1 
1 1 1 1 1 1 1 1 1 
1 1 1 1 1 1 1 1 1 
1 1 1 1 1 1 1 1 1 
1 1 1 1 1 1 1 1 1 
1 1 1 1 1 1 1 1 1 
1 1 1 1 1 1 1 1 1 
1 1 1 1 1 1 1 1 1 
1 1 1 1 1 1 1 1 1 
1 1 1 1 1 1 1 1 1 
1 1 1 1 1 1 1 1 1 
1 1 1 1 1 1 1 1 1 
1 1 1 1 1 1 1 1 1 
1 1 1 1 1 1 1 1 1 
1 1 1 1 1 1 1 1 1 
1 1 1 1 1 1 1 1 1 
1 1 1 1 1 1 1 1 1 
1 1 1 1 1 1 1 1 1 
1 1 1 1 1 1 1 1 1 
1 1 1 1 1 1 1 1 1 
1 1 1 1 1 1 1 1 1 
1 1 1 1 1 1 1 1 1 
1 1 1 1 1 1 1 1 1 
1 1 1 1 1 1 1 1 1 
1 1 1 1 1 1 1 1 1 
1 1 1 1 1 1 1 1 1 
1 1 1 1 1 1 1 1 1 
1 1 1 1 1 1 1 1 1 
1 1 1 1 1 1 1 1 1 
1 1 1 1 1 1 1 1 1 
1 1 1 1 1 1 1 1 1 
1 1 1 1 1 1 1 1 1 
1 1 1 1 1 1 1 1 1 
1 1 1 1 1 1 1 1 1 
1 1 1 1 1 1 1 1 1 
1 1 1 1 1 1 1 1 1 
1 1 1 1 1 1 1 1 1 
1 1 1 1 1 1 1 1 1 
1 1 1 1 1 1 1 1 1 
1 1 1 1 1 1 1 1 1 
1 1 1 1 1 1 1 1 1 
1 1 1 1 1 1 1 1 1 
1 1 1 1 1 1 1 1 1 
1 1 1 1 1 1 1 1 1 
1 1 1 1 1 1 1 1 1 
1 1 1 1 1 1 1 1 1 
1 1 1 1 1 1 1 1 1 
1 1 1 1 1 1 1 1 1 
1 1 1 1 1 1 1 1 1 
1 1 1 1 1 1 1 1 1 
1 1 1 1 1 1 1 1 1 
1 1 1 1 1 1 1 1 1 
1 1 1 1 1 1 1 1 1 
1 1 1 1 1 1 1 1 1 
1 1 1 1 1 1 1 1 1 
1 1 1 1 1 1 1 1 1 
1 1 1 1 1 1 1 1 1 
1 1 1 1 1 1 1 1 1 
1 1 1 1 1 1 1 1 1 
1 1 1 1 1 1 1 1 1 
1 1 1 1 1 1 1 1 1 
1 1 1 1 1 1 1 1 1 
1 1 1 1 1 1 1 1 1 
1 1 1 1 1 1 1 1 1 
1 1 1 1 1 1 1 1 1 
1 1 1 1 1 1 1 1 1 
1 1 1 1 1 1 1 1 1 
1 1 1 1 1 1 1 1 1 
1 1 1 1 1 1 1 1 1 
1 1 1 1 1 1 1 1 1 
1 1 1 1 1 1 1 1 1 
1 1 1 1 1 1 1 1 1 
1 1 1 1 1 1 1 1 1 
1 1 1 1 1 1 1 1 1 
1 1 1 1 1 1 1 1 1 
1 1 1 1 1 1 1 1 1 
1 1 1 1 1 1 1 1 1 
1 1 1 1 1 1 1 1 1 
1 1 1 1 1 1 1 1 1 
1 1 1 1 1 1 1 1 1 
1 1 1 1 1 1 1 1 1 
1 1 1 1 1 1 1 1 1 
1 1 1 1 1 1 1 1 1 
1 1 1 1 1 1 1 1 1 
1 1 1 1 1 1 1 1 1 
1 1 1 1 1 1 1 1 1 
1 1 1 1 1 1 1 1 1 
1 1 1 1 1 1 1 1 1 
1 1 1 1 1 1 1 1 1 
1 1 1 1 1 1 1 1 1 
1 1 1 1 1 1 1 1 1 
1 1 1 1 1 1 1 1 1 
1 1 1 1 1 1 1 1 1 
1 1 1 1 1 1 1 1 1 
1 1 1 1 1 1 1 1 1 
1 1 1 1 1 1 1 1 1 
1 1 1 1 1 1 1 1 1 
1 1 1 1 1 1 1 1 1 
1 1 1 1 1 1 1 1 1 
1 1 1 1 1 1 1 1 1 
1 1 1 1 1 1 1 1 1 
1 1 1 1 1 1 1 1 1 
1 1 1 1 1 1 1 1 1 
1 1 1 1 1 1 1 1 1 
1 1 1 1 1 1 1 1 1 
1 1 1 1 1 1 1 1 1 
1 1 1 1 1 1 1 1 1 
1 1 1 1 1 1 1 1 1 
1 1 1 1 1 1 1 1 1 
1 1 1 1 1 1 1 1 1 
1 1 1 1 1 1 1 1 1 
1 1 1 1 1 1 1 1 1 
1 1 1 1 1 1 1 1 1 
1 1 1 1 1 1 1 1 1 
1 1 1 1 1 1 1 1 1 
1 1 1 1 1 1 1 1 1 
1 1 1 1 1 1 1 1 1 
1 1 1 1 1 1 1 1 1 
1 1 1 1 1 1 1 1 1 
1 1 1 1 1 1 1 1 1 
1 1 1 1 1 1 1 1 1 
1 1 1 1 1 1 1 1 1 
1 1 1 1 1 1 1 1 1 
1 1 1 1 1 1 1 1 1 
1 1 1 1 1 1 1 1 1 
1 1 1 1 1 1 1 1 1 
1 1 1 1 1 1 1 1 1 
1 1 1 1 1 1 1 1 1 
1 1 1 1 1 1 1 1 1 
1 1 1 1 1 1 1 1 1 
1 1 1 1 1 1 1 1 1 
1 1 1 1 1 1 1 1 1 
1 1 1 1 1 1 1 1 1 
1 1 1 1 1 1 1 1 1 
1 1 1 1 1 1 1 1 1 
1 1 1 1 1 1 1 1 1 
1 1 1 1 1 1 1 1 1 
1 1 1 1 1 1 1 1 1 
1 1 1 1 1 1 1 1 1 
1 1 1 1 1 1 1 1 1 
1 1 1 1 1 1 1 1 1 
1 1 1 1 1 1 1 1 1 
1 1 1 1 1 1 1 1 1 
1 1 1 1 1 1 1 1 1 
1 1 1 1 1 1 1 1 1 
1 1 1 1 1 1 1 1 1 
1 1 1 1 1 1 1 1 1 
1 1 1 1 1 1 1 1 1 
1 1 1 1 1 1 1 1 1 
1 1 1 1 1 1 1 1 1 
1 1 1 1 1 1 1 1 1 
1 1 1 1 1 1 1 1 1 
1 1 1 1 1 1 1 1 1 
1 1 1 1 1 1 1 1 1 
1 1 1 1 1 1 1 1 1 
1 1 1 1 1 1 1 1 1 
1 1 1 1 1 1 1 1 1 
1 1 1 1 1 1 1 1 1 
1 1 1 1 1 1 1 1 1 
1 1 1 1 1 1 1 1 1 
1 1 1 1 1 1 1 1 1 
1 1 1 1 1 1 1 1 1 
1 1 1 1 1 1 1 1 1 
1 1 1 1 1 1 1 1 1 
1 1 1 1 1 1 1 1 1 
1 1 1 1 1 1 1 1 1 
1 1 1 1 1 1 1 1 1 
1 1 1 1 1 1 1 1 1 
1 1 1 1 1 1 1 1 1 
1 1 1 1 1 1 1 1 1 
1 1 1 1 1 1 1 1 1 
1 1 1 1 1 1 1 1 1 
1 1 1 1 1 1 1 1 1 
1 1 1 1 1 1 1 1 1 
1 1 1 1 1 1 1 1 1 
1 1 1 1 1 1 1 1 1 
1 1 1 1 1 1 1 1 1 
1 1 1 1 1 1 1 1 1 
1 1 1 1 1 1 1 1 1 
1 1 1 1 1 1 1 1 1 
1 1 1 1 1 1 1 1 1 
1 1 1 1 1 1 1 1 1 
1 1 1 1 1 1 1 1 1 
1 1 1 1 1 1 1 1 1 
1 1 1 1 1 1 1 1 1 
1 1 1 1 1 1 1 1 1 
1 1 1 1 1 1 1 1 1 
1 1 1 1 1 1 1 1 1 
1 1 1 1 1 1 1 1 1 
1 1 1 1 1 1 1 1 1 
1 1 1 1 1 1 1 1 1 
1 1 1 1 1 1 1 1 1 
1 1 1 1 1 1 1 1 1 
1 1 1 1 1 1 1 1 1 
1 1 1 1 1 1 1 1 1 
1 1 1 1 1 1 1 1 1 
1 1 1 1 1 1 1 1 1 
1 1 1 1 1 1 1 1 1 
1 1 1 1 1 1 1 1 1 
1 1 1 1 1 1 1 1 1 
1 1 1 1 1 1 1 1 1 
1 1 1 1 1 1 1 1 1 
1 1 1 1 1 1 1 1 1 
1 1 1 1 1 1 1 1 1 
1 1 1 1 1 1 1 1 1 
1 1 1 1 1 1 1 1 1 
1 1 1 1 1 1 1 1 1 
1 1 1 1 1 1 1 1 1 
1 1 1 1 1 1 1 1 1 
1 1 1 1 1 1 1 1 1 
1 1 1 1 1 1 1 1 1 
1 1 1 1 1 1 1 1 1 
1 1 1 1 1 1 1 1 1 
1 1 1 1 1 1 1 1 1 
1 1 1 1 1 1 1 1 1 
1 1 1 1 1 1 1 1 1 
1 1 1 1 1 1 1 1 1 
1 1 1 1 1 1 1 1 1 
1 1 1 1 1 1 1 1 1 
1 1 1 1 1 1 1 1 1 
1 1 1 1 1 1 1 1 1 
1 1 1 1 1 1 1 1 1 
1 1 1 1 1 1 1 1 1 
1 1 1 1 1 1 1 1 1 
1 1 1 1 1 1 1 1 1 
1 1 1 1 1 1 1 1 1 
1 1 1 1 1 1 1 1 1 
1 1 1 1 1 1 1 1 1 
1 1 1 1 1 1 1 1 1 
1 1 1 1 1 1 1 1 1 
1 1 1 1 1 1 1 1 1 
1 1 1 1 1 1 1 1 1 
1 1 1 1 1 1 1 1 1 
1 1 1 1 1 1 1 1 1 
1 1 1 1 1 1 1 1 1 
1 1 1 1 1 1 1 1 1 
1 1 1 1 1 1 1 1 1 
1 1 1 1 1 1 1 1 1 
1 1 1 1 1 1 1 1 1 
1 1 1 1 1 1 1 1 1 
1 1 1 1 1 1 1 1 1 
1 1 1 1 1 1 1 1 1 
1 1 1 1 1 1 1 1 1 
1 1 1 1 1 1 1 1 1 
1 1 1 1 1 1 1 1 1 
1 1 1 1 1 1 1 1 1 
1 1 1 1 1 1 1 1 1 
1 1 1 1 1 1 1 1 1 
1 1 1 1 1 1 1 1 1 
1 1 1 1 1 1 1 1 1 
1 1 1 1 1 1 1 1 1 
1 1 1 1 1 1 1 1 1 
1 1 1 1 1 1 1 1 1 
1 1 1 1 1 1 1 1 1 
1 1 1 1 1 1 1 1 1 
1 1 1 1 1 1 1 1 1 
1 1 1 1 1 1 1 1 1 
1 1 1 1 1 1 1 1 1 
1 1 1 1 1 1 1 1 1 
1 1 1 1 1 1 1 1 1 
1 1 1 1 1 1 1 1 1 
1 1 1 1 1 1 1 1 1 
1 1 1 1 1 1 1 1 1 
1 1 1 1 1 1 1 1 1 
1 1 1 1 1 1 1 1 1 
1 1 1 1 1 1 1 1 1 
1 1 1 1 1 1 1 1 1 
1 1 1 1 1 1 1 1 1 
1 1 1 1 1 1 1 1 1 
1 1 1 1 1 1 1 1 1 
1 1 1 1 1 1 1 1 1 
1 1 1 1 1 1 1 1 1 
1 1 1 1 1 1 1 1 1 
1 1 1 1 1 1 1 1 1 
1 1 1 1 1 1 1 1 1 
1 1 1 1 1 1 1 1 1 
1 1 1 1 1 1 1 1 1 
1 1 1 1 1 1 1 1 1 
1 1 1 1 1 1 1 1 1 
1 1 1 1 1 1 1 1 1 
1 1 1 1 1 1 1 1 1 
1 1 1 1 1 1 1 1 1 
1 1 1 1 1 1 1 1 1 
1 1 1 1 1 1 1 1 1 
1 1 1 1 1 1 1 1 1 
1 1 1 1 1 1 1 1 1 
1 1 1 1 1 1 1 1 1 
1 1 1 1 1 1 1 1 1 
1 1 1 1 1 1 1 1 1 
1 1 1 1 1 1 1 1 1 
1 1 1 1 1 1 1 1 1 
1 1 1 1 1 1 1 1 1 
1 1 1 1 1 1 1 1 1 
1 1 1 1 1 1 1 1 1 
1 1 1 1 1 1 1 1 1 
1 1 1 1 1 1 1 1 1 
1 1 1 1 1 1 1 1 1 
1 1 1 1 1 1 1 1 1 
1 1 1 1 1 1 1 1 1 
1 1 1 1 1 1 1 1 1 
1 1 1 1 1 1 1 1 1 
1 1 1 1 1 1 1 1 1 
1 1 1 1 1 1 1 1 1 
1 1 1 1 1 1 1 1 1 
1 1 1 1 1 1 1 1 1 
1 1 1 1 1 1 1 1 1 
1 1 1 1 1 1 1 1 1 
1 1 1 1 1 1 1 1 1 
1 1 1 1 1 1 1 1 1 
1 1 1 1 1 1 1 1 1 
1 1 1 1 1 1 1 1 1 
1 1 1 1 1 1 1 1 1 
1 1 1 1 1 1 1 1 1 
1 1 1 1 1 1 1 1 1 
1 1 1 1 1 1 1 1 1 
1 1 1 1 1 1 1 1 1 
1 1 1 1 1 1 1 1 1 
1 1 1 1 1 1 1 1 1 
1 1 1 1 1 1 1 1 1 
1 1 1 1 1 1 1 1 1 
1 1 1 1 1 1 1 1 1 
1 1 1 1 1 1 1 1 1 
1 1 1 1 1 1 1 1 1 
1 1 1 1 1 1 1 1 1 
1 1 1 1 1 1 1 1 1 
1 1 1 1 1 1 1 1 1 
1 1 1 1 1 1 1 1 1 
1 1 1 1 1 1 1 1 1 
1 1 1 1 1 1 1 1 1 
1 1 1 1 1 1 1 1 1 
1 1 1 1 1 1 1 1 1 
1 1 1 1 1 1 1 1 1 
1 1 1 1 1 1 1 1 1 
1 1 1 1 1 1 1 1 1 
1 1 1 1 1 1 1 1 1 
1 1 1 1 1 1 1 1 1 
1 1 1 1 1 1 1 1 1 
1 1 1 1 1 1 1 1 1 
1 1 1 1 1 1 1 1 1 
1 1 1 1 1 1 1 1 1 
1 1 1 1 1 1 1 1 1 
1 1 1 1 1 1 1 1 1 
1 1 1 1 1 1 1 1 1 
1 1 1 1 1 1 1 1 1 
1 1 1 1 1 1 1 1 1 
1 1 1 1 1 1 1 1 1 
1 1 1 1 1 1 1 1 1 
1 1 1 1 1 1 1 1 1 
1 1 1 1 1 1 1 1 1 
1 1 1 1 1 1 1 1 1 
1 1 1 1 1 1 1 1 1 
1 1 1 1 1 1 1 1 1 
1 1 1 1 1 1 1 1 1 
1 1 1 1 1 1 1 1 1 
1 1 1 1 1 1 1 1 1 
1 1 1 1 1 1 1 1 1 
1 1 1 1 1 1 1 1 1 
1 1 1 1 1 1 1 1 1 
1 1 1 1 1 1 1 1 1 
1 1 1 1 1 1 1 1 1 
1 1 1 1 1 1 1 1 1 
1 1 1 1 1 1 1 1 1 
1 1 1 1 1 1 1 1 1 
1 1 1 1 1 1 1 1 1 
1 1 1 1 1 1 1 1 1 
1 1 1 1 1 1 1 1 1 
1 1 1 1 1 1 1 1 1 
1 1 1 1 1 1 1 1 1 
1 1 1 1 1 1 1 1 1 
1 1 1 1 1 1 1 1 1 
1 1 1 1 1 1 1 1 1 
1 1 1 1 1 1 1 1 1 
1 1 1 1 1 1 1 1 1 
1 1 1 1 1 1 1 1 1 
1 1 1 1 1 1 1 1 1 
1 1 1 1 1 1 1 1 1 
1 1 1 1 1 1 1 1 1 
1 1 1 1 1 1 1 1 1 
1 1 1 1 1 1 1 1 1 
1 1 1 1 1 1 1 1 1 
1 1 1 1 1 1 1 1 1 
1 1 1 1 1 1 1 1 1 
1 1 1 1 1 1 1 1 1 
1 1 1 1 1 1 1 1 1 
1 1 1 1 1 1 1 1 1 
1 1 1 1 1 1 1 1 1 
1 1 1 1 1 1 1 1 1 
1 1 1 1 1 1 1 1 1 
1 1 1 1 1 1 1 1 1 
1 1 1 1 1 1 1 1 1 
1 1 1 1 1 1 1 1 1 
1 1 1 1 1 1 1 1 1 
1 1 1 1 1 1 1 1 1 
1 1 1 1 1 1 1 1 1 
1 1 1 1 1 1 1 1 1 
1 1 1 1 1 1 1 1 1 
1 1 1 1 1 1 1 1 1 
1 1 1 1 1 1 1 1 1 
1 1 1 1 1 1 1 1 1 
1 1 1 1 1 1 1 1 1 
1 1 1 1 1 1 1 1 1 
1 1 1 1 1 1 1 1 1 
1 1 1 1 1 1 1 1 1 
1 1 1 1 1 1 1 1 1 
1 1 1 1 1 1 1 1 1 
1 1 1 1 1 1 1 1 1 
1 1 1 1 1 1 1 1 1 
1 1 1 1 1 1 1 1 1 
1 1 1 1 1 1 1 1 1 
1 1 1 1 1 1 1 1 1 
1 1 1 1 1 1 1 1 1 
1 1 1 1 1 1 1 1 1 
1 1 1 1 1 1 1 1 1 
1 1 1 1 1 1 1 1 1 
1 1 1 1 1 1 1 1 1 
1 1 1 1 1 1 1 1 1 
1 1 1 1 1 1 1 1 1 
1 1 1 1 1 1 1 1 1 
1 1 1 1 1 1 1 1 1 
1 1 1 1 1 1 1 1 1 
1 1 1 1 1 1 1 1 1 
1 1 1 1 1 1 1 1 1 
1 1 1 1 1 1 1 1 1 
1 1 1 1 1 1 1 1 1 
1 1 1 1 1 1 1 1 1 
1 1 1 1 1 1 1 1 1 
1 1 1 1 1 1 1 1 1 
1 1 1 1 1 1 1 1 1 
1 1 1 1 1 1 1 1 1 
1 1 1 1 1 1 1 1 1 
1 1 1 1 1 1 1 1 1 
1 1 1 1 1 1 1 1 1 
1 1 1 1 1 1 1 1 1 
1 1 1 1 1 1 1 1 1 
1 1 1 1 1 1 1 1 1 
1 1 1 1 1 1 1 1 1 
1 1 1 1 1 1 1 1 1 
1 1 1 1 1 1 1 1 1 
1 1 1 1 1 1 1 1 1 
1 1 1 1 1 1 1 1 1 
1 1 1 1 1 1 1 1 1 
1 1 1 1 1 1 1 1 1 
1 1 1 1 1 1 1 1 1 
1 1 1 1 1 1 1 1 1 
1 1 1 1 1 1 1 1 1 
1 1 1 1 1 1 1 1 1 
1 1 1 1 1 1 1 1 1 
1 1 1 1 1 1 1 1 1 
1 1 1 1 1 1 1 1 1 
1 1 1 1 1 1 1 1 1 
1 1 1 1 1 1 1 1 1 
1 1 1 1 1 1 1 1 1 
1 1 1 1 1 1 1 1 1 
1 1 1 1 1 1 1 1 1 
1 1 1 1 1 1 1 1 1 
1 1 1 1 1 1 1 1 1 
1 1 1 1 1 1 1 1 1 
1 1 1 1 1 1 1 1 1 
1 1 1 1 1 1 1 1 1 
1 1 1 1 1 1 1 1 1 
1 1 1 1 1 1 1 1 1 
1 1 1 1 1 1 1 1 1 
1 1 1 1 1 1 1 1 1 
1 1 1 1 1 1 1 1 1 
1 1 1 1 1 1 1 1 1 
1 1 1 1 1 1 1 1 1 
1 1 1 1 1 1 1 1 1 
1 1 1 1 1 1 1 1 1 
1 1 1 1 1 1 1 1 1 
1 1 1 1 1 1 1 1 1 
1 1 1 1 1 1 1 1 1 
1 1 1 1 1 1 1 1 1 
1 1 1 1 1 1 1 1 1 
1 1 1 1 1 1 1 1 1 
1 1 1 1 1 1 1 1 1 
1 1 1 1 1 1 1 1 1 
1 1 1 1 1 1 1 1 1 
1 1 1 1 1 1 1 1 1 
1 1 1 1 1 1 1 1 1 
1 1 1 1 1 1 1 1 1 
1 1 1 1 1 1 1 1 1 
1 1 1 1 1 1 1 1 1 
1 1 1 1 1 1 1 1 1 
1 1 1 1 1 1 1 1 1 
1 1 1 1 1 1 1 1 1 
1 1 1 1 1 1 1 1 1 
1 1 1 1 1 1 1 1 1 
1 1 1 1 1 1 1 1 1 
1 1 1 1 1 1 1 1 1 
1 1 1 1 1 1 1 1 1 
1 1 1 1 1 1 1 1 1 
1 1 1 1 1 1 1 1 1 
1 1 1 1 1 1 1 1 1 
1 1 1 1 1 1 1 1 1 
1 1 1 1 1 1 1 1 1 
1 1 1 1 1 1 1 1 1 
1 1 1 1 1 1 1 1 1 
1 1 1 1 1 1 1 1 1 
1 1 1 1 1 1 1 1 1 
1 1 1 1 1 1 1 1 1 
1 1 1 1 1 1 1 1 1 
1 1 1 1 1 1 1 1 1 
1 1 1 1 1 1 1 1 1 
1 1 1 1 1 1 1 1 1 
1 1 1 1 1 1 1 1 1 
1 1 1 1 1 1 1 1 1 
1 1 1 1 1 1 1 1 1 
1 1 1 1 1 1 1 1 1 
1 1 1 
NORMALS normals float
-0.00970782 -0.00970782 -0.999906 -0.00686495 -0.70709 -0.70709 -0.70709 -0.00686495 -0.70709 
0 -0.00970828 -0.999953 0 -0.707107 -0.707107 0 -0.00970828 -0.999953 
0 -0.707107 -0.707107 0 -0.00970828 -0.999953 0 -0.707107 -0.707107 
0 -0.00970828 -0.999953 0 -0.707107 -0.707107 0.00970782 -0.00970782 -0.999906 
0.00686495 -0.70709 -0.70709 0.999906 -0.00970782 -0.00970782 -0.00970828 0 -0.999953 
-0.707107 0 -0.707107 0 0 -1 0 0 -1 
0 0 -1 0 0 -1 0.00970828 0 -0.999953 
0.999953 0 -0.00970828 -0.00970828 0 -0.999953 -0.707107 0 -0.707107 
0 0 -1 0 0 -1 0 0 -1 
0 0 -1 0.00970828 0 -0.999953 0.999953 0 -0.00970828 
-0.00970782 -0.00970782 -0.999906 -0.00686495 -0.70709 -0.70709 -0.57735 -0.57735 -0.57735 
0 -0.00970828 -0.999953 0 -0.707107 -0.707107 0 -0.00970828 -0.999953 
0 -0.707107 -0.707107 0 -0.00970828 -0.999953 0 -0.707107 -0.707107 
0 -0.00970828 -0.999953 0 -0.707107 -0.707107 0 -0.00970828 -0.999953 
0 -0.707107 -0.707107 0 -0.00970828 -0.999953 0 -0.707107 -0.707107 
0.00970782 -0.00970782 -0.999906 0.00686495 -0.70709 -0.70709 0.999906 -0.00970782 -0.00970782 
-0.00970828 0 -0.999953 -0.707107 0 -0.707107 0 0 -1 
0 0 -1 0 0 -1 0 0 -1 
0.00970828 0 -0.999953 0.579219 -0.573595 -0.579219 -0.00970782 -0.00970782 -0.999906 
-0.57735 -0.57735 -0.57735 -0.57735 -0.57735 -0.57735 0 0 -1 
0 0 -1 0 0 -1 0 0 -1 
0 0 -1 0 0 -1 0 0 -1 
0.00970828 0 -0.999953 0.579219 -0.573595 -0.579219 -0.00970828 0 -0.999953 
-0.707107 0 -0.707107 0 0 -1 0 0 -1 
0 0 -1 0 0 -1 0 0 -1 
0.573595 -0.579219 -0.579219 0 -0.00970828 -0.999953 0 -0.00970828 -0.999953 
0 -0.707107 -0.707107 0 -0.00970828 -0.999953 -0.573595 -0.579219 -0.579219 
0 0 -1 0 0 -1 0 0 -1 
0 0 -1 0 0 -1 0 0 -1 
0 0 -1 0 0 -1 0 0 -1 
0.573595 -0.579219 -0.579219 0 -0.00970828 -0.999953 0.00970782 -0.00970782 -0.999906 
0.00686495 -0.70709 -0.70709 0.999906 -0.00970782 -0.00970782 -0.00970828 0 -0.999953 
-0.707107 0 -0.707107 0 0 -1 0 0 -1 
0 0 -1 0 0 -1 0 0 -1 
0 0 -1 0 0 -1 0 0 -1 
0 0 -1 0 0 -1 0 0 -1 
0 0 -1 0 0 -1 0 0 -1 
0 0 -1 0 0 -1 0 0 -1 
0 0 -1 0.00970828 0 -0.999953 0.999953 0 -0.00970828 
-0.00970828 0 -0.999953 -0.707107 0 -0.707107 0 0 -1 
0 0 -1 0 0 -1 0 0 -1 
0 0 -1 0 0 -1 0 0 -1 
0 0 -1 0 0 -1 0 0 -1 
0 0 -1 0 0 -1 0 0 -1 
0 0 -1 0 0 -1 0 0 -1 
0 0 -1 0 0 -1 0.00970828 0 -0.999953 
0.999953 0 -0.00970828 -0.00970828 0 -0.999953 -0.707107 0 -0.707107 
0 0 -1 0 0 -1 0 0 -1 
0 0 -1 0 0 -1 0 0 -1 
0 0 -1 0 0 -1 0 0 -1 
0 0 -1 0 0 -1 0 0 -1 
0 0 -1 0 0 -1 0 0 -1 
0 0 -1 0 0 -1 0 0 -1 
0.00970828 0 -0.999953 0.999953 0 -0.00970828 -0.00970828 0 -0.999953 
-0.707107 0 -0.707107 0 0 -1 0 0 -1 
0 0 -1 0 0 -1 0 0 -1 
0 0 -1 0 0 -1 0 0 -1 
0 0 -1 0 0 -1 0 0 -1 
0 0 -1 0 0 -1 0 0 -1 
0 0 -1 0 0 -1 0 0 -1 
0 0 -1 0.00970828 0 -0.999953 0.999953 0 -0.00970828 
-0.00970828 0 -0.999953 -0.707107 0 -0.707107 0 0 -1 
0 0 -1 0 0 -1 0 0 -1 
0 0 -1 0 0 -1 0 0 -1 
0 0 -1 0 0 -1 0 0 -1 
0 0 -1 0 0 -1 0 0 -1 
0 0 -1 0 0 -1 0 0 -1 
0 0 -1 0 0 -1 0.00970828 0 -0.999953 
0.999953 0 -0.00970828 -0.00970828 0 -0.999953 -0.707107 0 -0.707107 
0 0 -1 0 0 -1 0 0 -1 
0 0 -1 0 0 -1 0 0 -1 
0 0 -1 0 0 -1 0 0 -1 
0 0 -1 0 0 -1 0 0 -1 
0 0 -1 0 0 -1 0 0 -1 
0 0 -1 0 0 -1 0 0 -1 
0.00970782 0.00970782 -0.999906 0.999906 0.00970782 -0.00970782 -0.00970782 0.00970782 -0.999906 
-0.70709 0.00686495 -0.70709 0 0.00970828 -0.999953 0 0.00970828 -0.999953 
0 0.00970828 -0.999953 0 0 -1 0 0 -1 
0 0 -1 0 0 -1 0 0 -1 
0 0 -1 0 0 -1 0 0 -1 
0 0.00970828 -0.999953 0 0.00970828 -0.999953 0 0.00970828 -0.999953 
0 0.00970828 -0.999953 0 0.00970828 -0.999953 0 0.00970828 -0.999953 
0.00970782 0.00970782 -0.999906 0.57735 0.57735 -0.57735 0.57735 0.57735 -0.57735 
-0.00970782 0.999906 -0.00970782 0 0.999953 -0.00970828 0 0.999953 -0.00970828 
-0.573595 0.579219 -0.579219 -0.579219 0.573595 -0.579219 -0.00970828 0 -0.999953 
0 0 -1 0 0 -1 0 0 -1 
0 0 -1 0 0 -1 0 0 -1 
0.00970782 0.00970782 -0.999906 0.70709 0.70709 -0.00686495 0.703632 0.710531 -0.00689836 
0 0.999953 -0.00970828 0 0.999953 -0.00970828 0 0.999953 -0.00970828 
0 0.999953 -0.00970828 0 0.999953 -0.00970828 0.00970782 0.999906 -0.00970782 
-0.00970782 0.00970782 -0.999906 -0.70709 0.00686495 -0.70709 0 0.00970828 -0.999953 
0 0.00970828 -0.999953 0 0.00970828 -0.999953 0 0.00970828 -0.999953 
0 0.00970828 -0.999953 0.00970782 0.00970782 -0.999906 0.57735 0.57735 -0.57735 
0.57735 0.57735 -0.57735 -0.00970782 0.999906 -0.00970782 0 0.999953 -0.00970828 
0 0.999953 -0.00970828 0 0.999953 -0.00970828 0 0.999953 -0.00970828 
0 0.999953 -0.00970828 0.00970782 0.999906 -0.00970782 -0.00686495 -0.70709 -0.70709 
-0.00686495 -0.70709 -0.70709 -0.57735 -0.57735 -0.57735 0 -0.707107 -0.707107 
0 -0.707107 -0.707107 0 -0.707107 -0.707107 0 -0.707107 -0.707107 
0 -0.707107 -0.707107 0 -0.707107 -0.707107 0 -0.707107 -0.707107 
0 -0.707107 -0.707107 0.00686495 -0.70709 -0.70709 0.00686495 -0.70709 -0.70709 
0.70709 -0.00686495 -0.70709 -0.70709 -0.00686495 -0.70709 -0.57735 -0.57735 -0.57735 
-0.70709 -0.00686495 -0.70709 0.710548 0 -0.703649 -0.707107 0 -0.707107 
-0.707107 0 -0.707107 0.710548 0 -0.703649 -0.00970782 -0.00970782 -0.999906 
-0.00686495 -0.70709 -0.70709 -0.70709 -0.00686495 -0.70709 0 -0.707107 -0.707107 
0 -0.707107 -0.707107 0 -0.707107 -0.707107 0 -0.707107 -0.707107 
0 -0.707107 -0.707107 0 -0.707107 -0.707107 0 -0.707107 -0.707107 
0 -0.707107 -0.707107 0 -0.707107 -0.707107 0 -0.707107 -0.707107 
0 -0.707107 -0.707107 0 -0.707107 -0.707107 0 -0.707107 -0.707107 
0 -0.707107 -0.707107 0.00686495 -0.70709 -0.70709 0.00686495 -0.70709 -0.70709 
0.70709 -0.00686495 -0.70709 -0.707107 0 -0.707107 -0.707107 0 -0.707107 
0.581105 -0.575464 -0.575464 -0.579219 -0.573595 -0.579219 -0.579219 -0.573595 -0.579219 
0.581105 -0.575464 -0.575464 -0.707107 0 -0.707107 -0.707107 0 -0.707107 
0.573595 -0.579219 -0.579219 0.573595 -0.579219 -0.579219 0 -0.707107 -0.707107 
0 -0.707107 -0.707107 -0.573595 -0.579219 -0.579219 -0.573595 -0.579219 -0.579219 
0.573595 -0.579219 -0.579219 0.573595 -0.579219 -0.579219 0.00686495 -0.70709 -0.70709 
0.00686495 -0.70709 -0.70709 0.70709 -0.00686495 -0.70709 -0.707107 0 -0.707107 
-0.707107 0 -0.707107 0.710548 0 -0.703649 -0.707107 0 -0.707107 
-0.707107 0 -0.707107 0.710548 0 -0.703649 -0.707107 0 -0.707107 
-0.707107 0 -0.707107 0.710548 0 -0.703649 -0.707107 0 -0.707107 
-0.707107 0 -0.707107 0.710548 0 -0.703649 -0.707107 0 -0.707107 
-0.707107 0 -0.707107 0.710548 0 -0.703649 -0.707107 0 -0.707107 
-0.707107 0 -0.707107 0.710548 0 -0.703649 -0.707107 0 -0.707107 
-0.707107 0 -0.707107 0.710548 0 -0.703649 -0.70709 0.00686495 -0.70709 
-0.70709 0.00686495 -0.70709 0.57735 0.57735 -0.57735 0.70709 0.00686495 -0.70709 
-0.00686495 0.70709 -0.70709 0 0.710548 -0.703649 0 0.710548 -0.703649 
-0.575464 0.581105 -0.575464 -0.579219 0.573595 -0.579219 -0.579219 0.573595 -0.579219 
0.581105 0.575464 -0.575464 0.575464 0.581105 -0.575464 0 0.710548 -0.703649 
0 0.710548 -0.703649 0 0.710548 -0.703649 0 0.710548 -0.703649 
0 0.710548 -0.703649 0 0.710548 -0.703649 0.00686495 0.70709 -0.70709 
-0.70709 0.00686495 -0.70709 -0.70709 0.00686495 -0.70709 0.57735 0.57735 -0.57735 