# vtk DataFile Version 3.0
vtk output
ASCII
DATASET POLYDATA
POINTS 1124 float
110 87 23.0093 110 86.0093 24 109.009 87 24 
110.991 87 24 109 88 23.0093 109 87.0093 24 
108.009 88 24 110 88 23.0093 111 87.0093 24 
111 88 23.0093 112 88 23.0093 112 87.0093 24 
112.991 88 24 109 89 23.0093 108.009 89 24 
110 89 23.0093 111 89 23.0093 111.991 89 24 
112 88.9907 24 109 89.9907 24 110 89.9907 24 
111 89.9907 24 117 90 23.0093 117 89.0093 24 
116.009 90 24 118 90 23.0093 118 89.0093 24 
119 90 23.0093 119 89.0093 24 120 90 23.0093 
120 89.0093 24 120.991 90 24 117 91 23.0093 
116.009 91 24 118 91 23.0093 119 91 23.0093 
119.991 91 24 120 90.9907 24 117 91.9907 24 
118 91.9907 24 119 91.9907 24 110 86.0093 25 
109.009 87 25 111 87 24.0093 111 86.0093 25 
112 87 24.0093 112 86.0093 25 112.991 87 25 
108 88 24.0093 108 87.0093 25 107.009 88 25 
109 87.0093 25 112.991 88 25 108 89 24.0093 
107.009 89 25 112 89 24.0093 113 88.0093 25 
113 89 24.0093 114 89 24.0093 114 88.0093 25 
115 89 24.0093 115 88.0093 25 116 89 24.0093 
116 88.0093 25 117 89 24.0093 117 88.0093 25 
118 89 24.0093 118 88.0093 25 118.991 89 25 
108 89.9907 25 109 89.9907 25 110 89.9907 25 
111 89.9907 25 112 89.9907 25 113 89.9907 25 
114 89.9907 25 115 89.9907 25 115.009 90 25 
116 90 24.0093 119 89.0093 25 120 89.0093 25 
120.991 90 25 116 91 24.0093 115.009 91 25 
120 91 24.0093 120.991 91 25 116 91.9907 25 
117 91.9907 25 118 91.9907 25 119 91.9907 25 
120 91.9907 25 112 85 25.0093 112 84.0093 26 
111.009 85 26 112.991 85 26 111 86 25.0093 
111 85.0093 26 110.009 86 26 112 86 25.0093 
113 85.0093 26 113 86 25.0093 114 86 25.0093 
114 85.0093 26 115 86 25.0093 115 85.0093 26 
116 86 25.0093 116 85.0093 26 116.991 86 26 
110 86.0093 26 109.009 87 26 113 87 25.0093 
114 87 25.0093 115 87 25.0093 116 87 25.0093 
116.991 87 26 107 88 25.0093 107 87.0093 26 
106.009 88 26 108 87.0093 26 109 87.0093 26 
113 88 25.0093 114 88 25.0093 115 88 25.0093 
116 88 25.0093 117 87.0093 26 117 88 25.0093 
118 88 25.0093 118 87.0093 26 118.991 88 26 
107 89 25.0093 106.009 89 26 118.991 89 26 
107 90 25.0093 106.009 90 26 108 90 25.0093 
109 90 25.0093 110 90 25.0093 111 90 25.0093 
112 90 25.0093 113 90 25.0093 114 90 25.0093 
115 90 25.0093 119 89.0093 26 120 89.0093 26 
120.991 90 26 107 91 25.0093 106.009 91 26 
108 91 25.0093 109 91 25.0093 110 91 25.0093 
111 91 25.0093 112 91 25.0093 113 91 25.0093 
114 91 25.0093 115 91 25.0093 120.991 91 26 
107 91.9907 26 108 91.9907 26 109 91.9907 26 
110 91.9907 26 111 91.9907 26 112 91.9907 26 
112.009 92 26 113 92 25.0093 114 92 25.0093 
115 92 25.0093 116 92 25.0093 117 92 25.0093 
118 92 25.0093 119 92 25.0093 120 92 25.0093 
121 91.0093 26 121 92 25.0093 122 92 25.0093 
122 91.0093 26 123 92 25.0093 123 91.0093 26 
124 92 25.0093 124 91.0093 26 124.991 92 26 
113 93 25.0093 112.009 93 26 114 93 25.0093 
115 93 25.0093 116 93 25.0093 117 93 25.0093 
118 93 25.0093 119 93 25.0093 120 93 25.0093 
121 93 25.0093 122 93 25.0093 123 93 25.0093 
123.991 93 26 124 92.9907 26 113 93.9907 26 
114 93.9907 26 115 93.9907 26 116 93.9907 26 
117 93.9907 26 118 93.9907 26 119 93.9907 26 
120 93.9907 26 121 93.9907 26 122 93.9907 26 
123 93.9907 26 112 84 26.0093 112 83.0093 27 
111.009 84 27 112.991 84 27 111 85 26.0093 
111 84.0093 27 110.009 85 27 113 85 26.0093 
113 84.0093 27 114 85 26.0093 114 84.0093 27 
115 85 26.0093 115 84.0093 27 115.991 85 27 
110 86 26.0093 110 85.0093 27 109.009 86 27 
116 85.0093 27 116.991 86 27 108 87 26.0093 
108 86.0093 27 107.009 87 27 109 87 26.0093 
109 86.0093 27 117 86.0093 27 117 87 26.0093 
117.991 87 27 107 87.0093 27 106.009 88 27 
118 87.0093 27 118.991 88 27 106.009 89 27 
119 88.0093 27 119 89 26.0093 119.991 89 27 
106.009 90 27 120 89.0093 27 120.991 90 27 
106.009 91 27 121 90.0093 27 121 91 26.0093 
122 91 26.0093 122 90.0093 27 122.991 91 27 
107 91.9907 27 108 91.9907 27 109 91.9907 27 
110 91.9907 27 111 91.9907 27 112 92 26.0093 
111.009 92 27 123 91.0093 27 124 91.0093 27 
124.991 92 27 112 93 26.0093 111.009 93 27 
124 93 26.0093 124.991 93 27 112 93.9907 27 
113 93.9907 27 114 93.9907 27 115 93.9907 27 
116 93.9907 27 117 93.9907 27 118 93.9907 27 
119 93.9907 27 120 93.9907 27 121 93.9907 27 
122 93.9907 27 123 93.9907 27 124 93.9907 27 
111 84 27.0093 111 83.0093 28 110.009 84 28 
112 83.0093 28 113 84 27.0093 113 83.0093 28 
114 84 27.0093 114 83.0093 28 115 84 27.0093 
115 83.0093 28 116 84 27.0093 116 83.0093 28 
116.991 84 28 110 85 27.0093 110 84.0093 28 
109.009 85 28 116 85 27.0093 116.991 85 28 
109 86 27.0093 109 85.0093 28 108.009 86 28 
117 86 27.0093 117 85.0093 28 118 86 27.0093 
118 85.0093 28 118.991 86 28 108 86.0093 28 
107.009 87 28 118 87 27.0093 118.991 87 28 
107 87.0093 28 106.009 88 28 119 88 27.0093 
119 87.0093 28 120 88 27.0093 120 87.0093 28 
120.991 88 28 106.009 89 28 120 89 27.0093 
120.991 89 28 106.009 90 28 121 90 27.0093 
121 89.0093 28 122 90 27.0093 122 89.0093 28 
122.991 90 28 106.009 91 28 122.991 91 28 
107 91.9907 28 108 91.9907 28 109 92 27.0093 
108.009 92 28 110 92 27.0093 111 92 27.0093 
123 91.0093 28 124 91.0093 28 125 92 27.0093 
125 91.0093 28 126 92 27.0093 126 91.0093 28 
126.991 92 28 109 93 27.0093 108.009 93 28 
110 93 27.0093 111 93 27.0093 125 93 27.0093 
126 93 27.0093 126.991 93 28 109 93.9907 28 
110 93.9907 28 110.009 94 28 111 94 27.0093 
112 94 27.0093 113 94 27.0093 114 94 27.0093 
115 94 27.0093 116 94 27.0093 117 94 27.0093 
118 94 27.0093 119 94 27.0093 120 94 27.0093 
121 94 27.0093 122 94 27.0093 123 94 27.0093 
124 94 27.0093 125 94 27.0093 126 94 27.0093 
126.991 94 28 111 95 27.0093 110.009 95 28 
112 95 27.0093 113 95 27.0093 114 95 27.0093 
115 95 27.0093 116 95 27.0093 117 95 27.0093 
118 95 27.0093 119 95 27.0093 120 95 27.0093 
121 95 27.0093 122 95 27.0093 123 95 27.0093 
124 95 27.0093 125 95 27.0093 125.991 95 28 
126 94.9907 28 111 95.9907 28 112 95.9907 28 
113 95.9907 28 114 95.9907 28 115 95.9907 28 
116 95.9907 28 117 95.9907 28 118 95.9907 28 
119 95.9907 28 120 95.9907 28 120.009 96 28 
121 96 27.0093 122 96 27.0093 123 96 27.0093 
124 96 27.0093 124.991 96 28 125 95.9907 28 
121 97 27.0093 120.009 97 28 122 97 27.0093 
123 97 27.0093 123.991 97 28 124 96.9907 28 
121 97.9907 28 122 97.9907 28 123 97.9907 28 
110 83 28.0093 110 82.0093 29 109.009 83 29 
111 83 28.0093 111 82.0093 29 112 83 28.0093 
112 82.0093 29 113 83 28.0093 113 82.0093 29 
114 83 28.0093 114 82.0093 29 115 83 28.0093 
115 82.0093 29 115.991 83 29 110 84 28.0093 
109.009 84 29 116 83.0093 29 116.991 84 29 
108 85 28.0093 108 84.0093 29 107.009 85 29 
109 85 28.0093 109 84.0093 29 117 84.0093 29 
117 85 28.0093 117.991 85 29 108 86 28.0093 
107.009 86 29 118 85.0093 29 118.991 86 29 
107 87 28.0093 107 86.0093 29 106.009 87 29 
119 86.0093 29 119 87 28.0093 120 87 28.0093 
120 86.0093 29 120.991 87 29 106.009 88 29 
120.991 88 29 106.009 89 29 121 88.0093 29 
121 89 28.0093 122 89 28.0093 122 88.0093 29 
122.991 89 29 106.009 90 29 122.991 90 29 
106.009 91 29 123 90.0093 29 123 91 28.0093 
124 91 28.0093 124 90.0093 29 125 91 28.0093 
125 90.0093 29 126 91 28.0093 126 90.0093 29 
126.991 91 29 107 91.9907 29 108 91.9907 29 
108.009 92 29 126.991 92 29 108.009 93 29 
127 92.0093 29 127 93 28.0093 127.991 93 29 
109 93.9907 29 110 93.9907 29 110.009 94 29 
126.991 94 29 127 93.9907 29 110.009 95 29 
126 95 28.0093 126.991 95 29 111 95.9907 29 
112 95.9907 29 113 95.9907 29 114 95.9907 29 
115 95.9907 29 116 95.9907 29 117 95.9907 29 
118 95.9907 29 119 95.9907 29 120 96 28.0093 
119.009 96 29 124.991 96 29 125 95.9907 29 
126 95.9907 29 120 96.9907 29 120.009 97 29 
123.991 97 29 124 96.9907 29 121 97.9907 29 
122 97.9907 29 123 97.9907 29 108 83 29.0093 
108 82.0093 30 107.009 83 30 108.991 83 30 
110 83 29.9907 111 83 29.9907 112 83 29.9907 
113 83 29.9907 114 83 29.9907 115 83 29.9907 
107 84 29.0093 107 83.0093 30 106.009 84 30 
108 84 29.0093 109 83.0093 30 109 84 29.0093 
110 83.0093 30 111 83.0093 30 112 83.0093 30 
113 83.0093 30 114 83.0093 30 115 83.0093 30 
116 83.0093 30 116.991 84 30 106 85 29.0093 
106 84.0093 30 105.009 85 30 107 85 29.0093 
117 85 29.9907 116.991 85 30 106 85.9907 30 
106.009 86 30 107 86 29.0093 117 85.0093 30 
118 85.0093 30 119 86 29.0093 119 85.0093 30 
120 86 29.0093 120 85.0093 30 121 86 29.0093 
121 85.0093 30 122 86 29.0093 122 85.0093 30 
122.991 86 30 106.009 87 30 121 87 29.0093 
122 87 29.0093 122.991 87 30 106.009 88 30 
121 88 29.0093 122 88 29.0093 123 87.0093 30 
123 88 29.0093 124 88 29.0093 124 87.0093 30 
124.991 88 30 106.009 89 30 123 89 29.0093 
124 89 29.0093 124.991 89 30 106.009 90 30 
123 90 29.0093 124 90 29.0093 124.991 90 30 
106.009 91 30 124.991 91 30 125 91 29.9907 
126 91 29.9907 107 91.9907 30 108 91.9907 30 
108.009 92 30 125 91.0093 30 126 91.0093 30 
127 91.0093 30 127 92 29.0093 128 92 29.0093 
128 91.0093 30 128.991 92 30 108.009 93 30 
128 93 29.0093 128.991 93 30 109 93.9907 30 
110 93.9907 30 110.009 94 30 127 94 29.0093 
128 94 29.0093 128.991 94 30 110.009 95 30 
127 95 29.0093 127.991 95 30 128 94.9907 30 
111 95.9907 30 112 95.9907 30 113 96 29.0093 
112.009 96 30 114 96 29.0093 115 96 29.0093 
116 96 29.0093 117 96 29.0093 118 96 29.0093 
119 96 29.0093 125 96 29.0093 126 96 29.0093 
126.991 96 30 127 95.9907 30 113 97 29.0093 
112.009 97 30 114 97 29.0093 115 97 29.0093 
116 97 29.0093 117 97 29.0093 118 97 29.0093 
119 97 29.0093 120 97 29.0093 124 97 29.0093 
125 97 29.0093 125.991 97 30 126 96.9907 30 
113 97.9907 30 114 97.9907 30 115 97.9907 30 
116 97.9907 30 117 97.9907 30 118 97.9907 30 
119 97.9907 30 120 97.9907 30 121 97.9907 30 
122 97.9907 30 123 97.9907 30 124 97.9907 30 
125 97.9907 30 108 83 30.9907 107 83.0093 31 
106.009 84 31 108 83.0093 31 109 83.0093 31 
110 83.0093 31 111 83.0093 31 112 83.0093 31 
113 83.0093 31 114 83.0093 31 115 83.0093 31 
116 84 30.9907 115.991 84 31 106 85 30.9907 
106.009 85 31 116 85 30.9907 115.991 85 31 
106.009 86 31 116 85.0093 31 117 85.0093 31 
[...]
POINT_DATA 1124
SCALARS scalars float
LOOKUP_TABLE default
1 1 1 1 1 1 1 1 1 
1 1 1 1 1 1 1 1 1 
1 1 1 1 1 1 1 1 1 
1 1 1 1 1 1 1 1 1 
1 1 1 1 1 1 1 1 1 
1 1 1 1 1 1 1 1 1 
1 1 1 1 1 1 1 1 1 
1 1 1 1 1 1 1 1 1 
1 1 1 1 1 1 1 1 1 
1 1 1 1 1 1 1 1 1 
1 1 1 1 1 1 1 1 1 
1 1 1 1 1 1 1 1 1 
1 1 1 1 1 1 1 1 1 
1 1 1 1 1 1 1 1 1 
1 1 1 1 1 1 1 1 1 
1 1 1 1 1 1 1 1 1 
1 1 1 1 1 1 1 1 1 
1 1 1 1 1 1 1 1 1 
1 1 1 1 1 1 1 1 1 
1 1 1 1 1 1 1 1 1 
1 1 1 1 1 1 1 1 1 
1 1 1 1 1 1 1 1 1 
1 1 1 1 1 1 1 1 1 
1 1 1 1 1 1 1 1 1 
1 1 1 1 1 1 1 1 1 
1 1 1 1 1 1 1 1 1 
1 1 1 1 1 1 1 1 1 
1 1 1 1 1 1 1 1 1 
1 1 1 1 1 1 1 1 1 
1 1 1 1 1 1 1 1 1 
1 1 1 1 1 1 1 1 1 
1 1 1 1 1 1 1 1 1 
1 1 1 1 1 1 1 1 1 
1 1 1 1 1 1 1 1 1 
1 1 1 1 1 1 1 1 1 
1 1 1 1 1 1 1 1 1 
1 1 1 1 1 1 1 1 1 
1 1 1 1 1 1 1 1 1 
1 1 1 1 1 1 1 1 1 
1 1 1 1 1 1 1 1 1 
1 1 1 1 1 1 1 1 1 
1 1 1 1 1 1 1 1 1 
1 1 1 1 1 1 1 1 1 
1 1 1 1 1 1 1 1 1 
1 1 1 1 1 1 1 1 1 
1 1 1 1 1 1 1 1 1 
1 1 1 1 1 1 1 1 1 
1 1 1 1 1 1 1 1 1 
1 1 1 1 1 1 1 1 1 
1 1 1 1 1 1 1 1 1 
1 1 1 1 1 1 1 1 1 
1 1 1 1 1 1 1 1 1 
1 1 1 1 1 1 1 1 1 
1 1 1 1 1 1 1 1 1 
1 1 1 1 1 1 1 1 1 
1 1 1 1 1 1 1 1 1 
1 1 1 1 1 1 1 1 1 
1 1 1 1 1 1 1 1 1 
1 1 1 1 1 1 1 1 1 
1 1 1 1 1 1 1 1 1 
1 1 1 1 1 1 1 1 1 
1 1 1 1 1 1 1 1 1 
1 1 1 1 1 1 1 1 1 
1 1 1 1 1 1 1 1 1 
1 1 1 1 1 1 1 1 1 
1 1 1 1 1 1 1 1 1 
1 1 1 1 1 1 1 1 1 
1 1 1 1 1 1 1 1 1 
1 1 1 1 1 1 1 1 1 
1 1 1 1 1 1 1 1 1 
1 1 1 1 1 1 1 1 1 
1 1 1 1 1 1 1 1 1 
1 1 1 1 1 1 1 1 1 
1 1 1 1 1 1 1 1 1 
1 1 1 1 1 1 1 1 1 
1 1 1 1 1 1 1 1 1 
1 1 1 1 1 1 1 1 1 
1 1 1 1 1 1 1 1 1 
1 1 1 1 1 1 1 1 1 
1 1 1 1 1 1 1 1 1 
1 1 1 1 1 1 1 1 1 
1 1 1 1 1 1 1 1 1 
1 1 1 1 1 1 1 1 1 
1 1 1 1 1 1 1 1 1 
1 1 1 1 1 1 1 1 1 
1 1 1 1 1 1 1 1 1 
1 1 1 1 1 1 1 1 1 
1 1 1 1 1 1 1 1 1 
1 1 1 1 1 1 1 1 1 
1 1 1 1 1 1 1 1 1 
1 1 1 1 1 1 1 1 1 
1 1 1 1 1 1 1 1 1 
1 1 1 1 1 1 1 1 1 
1 1 1 1 1 1 1 1 1 
1 1 1 1 1 1 1 1 1 
1 1 1 1 1 1 1 1 1 
1 1 1 1 1 1 1 1 1 
1 1 1 1 1 1 1 1 1 
1 1 1 1 1 1 1 1 1 
1 1 1 1 1 1 1 1 1 
1 1 1 1 1 1 1 1 1 
1 1 1 1 1 1 1 1 1 
1 1 1 1 1 1 1 1 1 
1 1 1 1 1 1 1 1 1 
1 1 1 1 1 1 1 1 1 
1 1 1 1 1 1 1 1 1 
1 1 1 1 1 1 1 1 1 
1 1 1 1 1 1 1 1 1 
1 1 1 1 1 1 1 1 1 
1 1 1 1 1 1 1 1 1 
1 1 1 1 1 1 1 1 1 
1 1 1 1 1 1 1 1 1 
1 1 1 1 1 1 1 1 1 
1 1 1 1 1 1 1 1 1 
1 1 1 1 1 1 1 1 1 
1 1 1 1 1 1 1 1 1 
1 1 1 1 1 1 1 1 1 
1 1 1 1 1 1 1 1 1 
1 1 1 1 1 1 1 1 1 
1 1 1 1 1 1 1 1 1 
1 1 1 1 1 1 1 1 1 
1 1 1 1 1 1 1 1 1 
1 1 1 1 1 1 1 1 1 
1 1 1 1 1 1 1 1 1 
1 1 1 1 1 1 1 1 
NORMALS normals float
0 -0.00925886 -0.999957 0 -0.999957 -0.00925886 -0.703795 -0.710373 -0.00657752 
0.57377 -0.579132 -0.579132 -0.00925847 -0.00925847 -0.999914 -0.707092 -0.707092 -0.00654714 
-0.707092 -0.00654714 -0.707092 0 0 -1 0.57377 -0.579132 -0.579132 
0 -0.00925886 -0.999957 0.00925886 0 -0.999957 0.00657752 -0.703795 -0.710373 
0.999957 0 -0.00925886 -0.00925847 0.00925847 -0.999914 -0.707092 0.00654714 -0.707092 
0 0.00925886 -0.999957 0.00925847 0.00925847 -0.999914 0.57735 0.57735 -0.57735 
0.579132 0.57377 -0.579132 -0.00925847 0.999914 -0.00925847 0 0.999957 -0.00925886 
0.00925847 0.999914 -0.00925847 -0.00925847 -0.00925847 -0.999914 -0.00654714 -0.707092 -0.707092 
-0.707092 -0.00654714 -0.707092 0 -0.00925886 -0.999957 0 -0.707107 -0.707107 
0 -0.00925886 -0.999957 0 -0.999957 -0.00925886 0.00925886 0 -0.999957 
0.00934498 -0.999913 -0.00934498 0.999957 0 -0.00925886 -0.00925847 0.00925847 -0.999914 
-0.707092 0.00654714 -0.707092 0 0.00925886 -0.999957 0.00925847 0.00925847 -0.999914 
0.57735 0.57735 -0.57735 0.579132 0.57377 -0.579132 -0.00925847 0.999914 -0.00925847 
0 0.999957 -0.00925886 0.00925847 0.999914 -0.00925847 -0.00925886 -0.999957 0 
-0.707107 -0.707107 0 0.57377 -0.579132 -0.579132 0 -0.707107 -0.707107 
0.00654714 -0.707092 -0.707092 0.00654714 -0.707092 -0.707092 0.707092 -0.00654714 -0.707092 
-0.707092 -0.00654714 -0.707092 -0.00925847 -0.999914 -0.00925847 -0.707092 -0.00654714 -0.707092 
-0.70381 -0.710388 0 0.580931 -0.575552 -0.575552 -0.707092 0.00654714 -0.707092 
-0.707092 0.00654714 -0.707092 0.57377 0.579132 -0.579132 0.575552 -0.575552 -0.580931 
0 0 -1 0 0 -1 0 -0.70381 -0.710388 
0 0 -1 0 -0.70381 -0.710388 0 -0.00925886 -0.999957 
0 -0.707107 -0.707107 0 -0.707107 -0.707107 0 -0.707107 -0.707107 
0.00654714 -0.707092 -0.707092 0.00654714 -0.707092 -0.707092 0.707092 -0.707092 -0.00654714 
-0.00654714 0.707092 -0.707092 0 0.710388 -0.70381 0 0.710388 -0.70381 
0 0.710388 -0.70381 0 0.707107 -0.707107 0 0.70381 -0.710388 
0 0.70381 -0.710388 -0.575552 0.575552 -0.580931 -0.579132 0.57377 -0.579132 
-0.707107 0 -0.707107 0.70381 -0.710388 0 0.00925886 -0.999957 0 
0.999957 -0.00925886 0 -0.707092 0.00654714 -0.707092 -0.707092 0.00654714 -0.707092 
0.57735 0.57735 -0.57735 0.999914 0.00925847 -0.00925847 -0.00654714 0.707092 -0.707092 
0 0.710388 -0.70381 0 0.710388 -0.70381 0 0.710388 -0.70381 
0.00654714 0.707092 -0.707092 0 -0.00925886 -0.999957 0 -0.707107 -0.707107 
-0.57377 -0.579132 -0.579132 0.57377 -0.579132 -0.579132 -0.00654714 -0.707092 -0.707092 
-0.57735 -0.57735 -0.57735 -0.57735 -0.57735 -0.57735 0 -0.70381 -0.710388 
0.57377 -0.579132 -0.579132 0 -0.00925886 -0.999957 0 -0.00925886 -0.999957 
0 -0.707107 -0.707107 0 -0.00925886 -0.999957 0 -0.707107 -0.707107 
0.00925847 -0.00925847 -0.999914 0.00925847 -0.999914 -0.00925847 0.999914 -0.00925847 -0.00925847 
-0.579132 -0.579132 -0.57377 -0.579132 -0.579132 -0.57377 0.70381 0 -0.710388 
0 0 -1 0 0 -1 0.00925886 0 -0.999957 
0.579132 -0.57377 -0.579132 -0.707092 -0.00654714 -0.707092 -0.00925847 -0.999914 -0.00925847 
-0.999914 -0.00925847 -0.00925847 0 -0.710388 -0.70381 -0.575552 -0.580931 -0.575552 
0.575552 -0.575552 -0.580931 0 -0.70381 -0.710388 0 -0.70381 -0.710388 
0 -0.70381 -0.710388 0.57377 -0.579132 -0.579132 0 -0.707107 -0.707107 
0.00654714 -0.707092 -0.707092 0.00925847 -0.999914 -0.00925847 0.999914 -0.00925847 -0.00925847 
-0.707107 0 -0.707107 -0.999957 0 -0.00925886 0.580931 -0.575552 -0.575552 
-0.00925886 0 -0.999957 -0.999957 0 -0.00925886 0 0.70381 -0.710388 
0 0.70381 -0.710388 0 0.70381 -0.710388 0 0.70381 -0.710388 
0 0.70381 -0.710388 0 0.70381 -0.710388 0 0.70381 -0.710388 
-0.575552 0.575552 -0.580931 0.575552 -0.580931 -0.575552 0.00925886 -0.999957 0 
0.999957 -0.00925886 0 -0.00925847 0.00925847 -0.999914 -0.999914 0.00925847 -0.00925847 
0 0.00925886 -0.999957 0 0.00925886 -0.999957 0 0.00925886 -0.999957 
0 0.00925886 -0.999957 0 0.00925886 -0.999957 0 0 -1 
0 0 -1 -0.70381 0 -0.710388 0.580931 -0.575552 -0.575552 
-0.00925847 0.999914 -0.00925847 0 0.999957 -0.00925886 0 0.999957 -0.00925886 
0 0.999957 -0.00925886 0 0.999957 -0.00925886 -0.57377 0.579132 -0.579132 
-0.579132 0.57377 -0.579132 -0.00925886 0 -0.999957 0 0 -1 
0 0 -1 0 0.70381 -0.710388 0 0.70381 -0.710388 
0 0.70381 -0.710388 0 0.70381 -0.710388 0 0.70381 -0.710388 
0.57377 -0.579132 -0.579132 0 -0.00925886 -0.999957 0 -0.00925886 -0.999957 
0 -0.707107 -0.707107 0 -0.00925886 -0.999957 0 -0.999957 -0.00925886 
0.00925886 0 -0.999957 0.00934498 -0.999913 -0.00934498 0.999957 0 -0.00925886 
-0.00925847 0.00925847 -0.999914 -0.707092 0.00654714 -0.707092 0 0.00925886 -0.999957 
0 0.00925886 -0.999957 0 0.00925886 -0.999957 0 0.00925886 -0.999957 
0 0.00925886 -0.999957 0 0.00925886 -0.999957 0 0.00925886 -0.999957 
0 0.00925886 -0.999957 0 0.00925886 -0.999957 0.00925847 0.00925847 -0.999914 
0.57735 0.57735 -0.57735 0.579132 0.57377 -0.579132 -0.00925847 0.999914 -0.00925847 
0 0.999957 -0.00925886 0 0.999957 -0.00925886 0 0.999957 -0.00925886 
0 0.999957 -0.00925886 0 0.999957 -0.00925886 0 0.999957 -0.00925886 
0 0.999957 -0.00925886 0 0.999957 -0.00925886 0 0.999957 -0.00925886 
0.00925847 0.999914 -0.00925847 0 -0.707107 -0.707107 0 -0.999957 -0.00925886 
-0.57377 -0.579132 -0.579132 0.57377 -0.579132 -0.579132 -0.57735 -0.57735 -0.57735 
-0.57735 -0.57735 -0.57735 -0.57735 -0.57735 -0.57735 0.57377 -0.579132 -0.579132 
0.57377 -0.579132 -0.579132 0 -0.707107 -0.707107 0 -0.707107 -0.707107 
0.00654714 -0.707092 -0.707092 0.00654714 -0.707092 -0.707092 0.57735 -0.57735 -0.57735 
-0.57735 -0.57735 -0.57735 -0.57735 -0.57735 -0.57735 -0.57735 -0.57735 -0.57735 
0.579132 -0.579132 -0.57377 0.579132 -0.579132 -0.57377 -0.00654714 -0.707092 -0.707092 
-0.00925847 -0.999914 -0.00925847 -0.707092 -0.707092 -0.00654714 -0.57377 -0.579132 -0.579132 
-0.57377 -0.579132 -0.579132 0.57735 -0.57735 -0.57735 0.57735 -0.57735 -0.57735 
0.57735 -0.57735 -0.57735 -0.707107 -0.707107 0 -0.999957 -0.00925886 0 
0.579132 -0.579132 -0.57377 0.579132 -0.579132 -0.57377 -1 0 0 
0.57735 -0.57735 -0.57735 0.57735 -0.57735 -0.57735 0.57735 -0.57735 -0.57735 
-1 0 0 0.579132 -0.579132 -0.57377 0.579132 -0.579132 -0.57377 
-0.999957 0.00925886 0 0.57377 -0.579132 -0.579132 0.57377 -0.579132 -0.579132 
0.00654714 -0.707092 -0.707092 0.00654714 -0.707092 -0.707092 0.707092 -0.707092 -0.00654714 
-0.00925886 0.999957 0 0 1 0 0 0.710388 -0.70381 
0 0.710388 -0.70381 -0.575552 0.580931 -0.575552 -0.579132 0.57377 -0.579132 
-0.579132 0.57377 -0.579132 0.70381 -0.710388 0 0.00925886 -0.999957 0 
0.710373 -0.00657752 -0.703795 -0.707092 0.00654714 -0.707092 -0.707092 0.00654714 -0.707092 
0.57735 0.57735 -0.57735 0.707092 0.00654714 -0.707092 -0.00654714 0.707092 -0.707092 
0 0.710388 -0.70381 0 0.710388 -0.70381 0 0.710388 -0.70381 
0 0.710388 -0.70381 0 0.710388 -0.70381 0 0.710388 -0.70381 
0 0.710388 -0.70381 0 0.710388 -0.70381 0 0.710388 -0.70381 
0 0.710388 -0.70381 0 0.710388 -0.70381 0.00654714 0.707092 -0.707092 
-0.57735 -0.57735 -0.57735 -0.00654714 -0.707092 -0.707092 -0.57735 -0.57735 -0.57735 
0 -0.710388 -0.70381 0.57377 -0.579132 -0.579132 0 -0.707107 -0.707107 
0 -0.707107 -0.707107 0 -0.707107 -0.707107 0 -0.707107 -0.707107 
0 -0.707107 -0.707107 0.00925847 -0.00925847 -0.999914 0.00925847 -0.999914 -0.00925847 
0.999914 -0.00925847 -0.00925847 -0.57735 -0.57735 -0.57735 -0.57735 -0.57735 -0.57735 
-0.57735 -0.57735 -0.57735 0.579132 -0.57377 -0.579132 0.579132 -0.57377 -0.579132 
-0.57735 -0.57735 -0.57735 -0.57735 -0.57735 -0.57735 -0.57735 -0.57735 -0.57735 
0.57377 -0.579132 -0.579132 0.57377 -0.579132 -0.579132 0.00925847 -0.00925847 -0.999914 
0.00925847 -0.999914 -0.00925847 0.999914 -0.00925847 -0.00925847 -0.579132 -0.579132 -0.57377 
-0.579132 -0.579132 -0.57377 0.579132 -0.57377 -0.579132 0.579132 -0.57377 -0.579132 
-0.579132 -0.579132 -0.57377 -0.999957 -0.00925886 0 0.57377 -0.579132 -0.579132 
0.57377 -0.579132 -0.579132 0.00925847 -0.00925847 -0.999914 0.00654714 -0.707092 -0.707092 
0.999914 -0.00925847 -0.00925847 -1 0 0 0.579132 -0.57377 -0.579132 
0.579132 -0.57377 -0.579132 -1 0 0 0.57377 -0.579132 -0.579132 
0.57377 -0.579132 -0.579132 0.00654714 -0.707092 -0.707092 0.00654714 -0.707092 -0.707092 
0.999914 -0.00925847 -0.00925847 -0.999957 0.00925886 0 0.580931 -0.575552 -0.575552 
-0.00925886 0.999957 0 -0.70381 0.710388 0 -0.00657752 0.703795 -0.710373 
-0.710373 0.703795 -0.00657752 0 0.70381 -0.710388 -0.575552 0.575552 -0.580931 
0.575552 -0.580931 -0.575552 0 -0.710388 -0.70381 0.703795 -0.00657752 -0.710373 
0 -0.707107 -0.707107 0.00925847 -0.00925847 -0.999914 0.00654714 -0.707092 -0.707092 
0.999914 -0.00925847 -0.00925847 -0.00925847 0.00925847 -0.999914 -0.999914 0.00925847 -0.00925847 
0 0.00925886 -0.999957 -0.70381 0 -0.710388 0.70381 0 -0.710388 
0.00925886 0 -0.999957 0.707107 0 -0.707107 -0.00925847 0.999914 -0.00925847 
-0.703795 0.710373 -0.00657752 -0.710373 0.703795 -0.00657752 -0.00925886 0 -0.999957 
0 0.70381 -0.710388 0 0.70381 -0.710388 0 0.70381 -0.710388 
0 0.70381 -0.710388 0 0.70381 -0.710388 0 0.70381 -0.710388 
0 0.70381 -0.710388 0 0.70381 -0.710388 0 0.70381 -0.710388 
0 0.70381 -0.710388 0 0.70381 -0.710388 0 0.70381 -0.710388 
0 0.70381 -0.710388 0 0 -1 0.00925847 0.00925847 -0.999914 
0.999914 0.00925847 -0.00925847 -0.00925847 0.00925847 -0.999914 -0.999914 0.00925847 -0.00925847 
0 0.00925886 -0.999957 0 0.00925886 -0.999957 0 0.00925886 -0.999957 
0 0.00925886 -0.999957 0 0.00925886 -0.999957 0 0.00925886 -0.999957 
0 0.00925886 -0.999957 0 0.00925886 -0.999957 0 0.00925886 -0.999957 
0 0 -1 0 0 -1 0 0 -1 
0 0 -1 0.00925847 0.00925847 -0.999914 0.57735 0.57735 -0.57735 
0.57735 0.57735 -0.57735 -0.00925847 0.999914 -0.00925847 0 0.999957 -0.00925886 
0 0.999957 -0.00925886 0 0.999957 -0.00925886 0 0.999957 -0.00925886 
0 0.999957 -0.00925886 0 0.999957 -0.00925886 0 0.999957 -0.00925886 
0 0.999957 -0.00925886 -0.57377 0.579132 -0.579132 -0.579132 0.57377 -0.579132 
-0.00925886 0 -0.999957 0 0 -1 0 0 -1 
0.00925847 0.00925847 -0.999914 0.707092 0.707092 -0.00654714 0.707092 0.707092 -0.00654714 
-0.00925847 0.00925847 -0.999914 -0.999914 0.00925847 -0.00925847 0 0.00925886 -0.999957 
0.00925847 0.00925847 -0.999914 0.707092 0.707092 -0.00654714 0.707092 0.707092 -0.00654714 
-0.00925847 0.999914 -0.00925847 0 0.999957 -0.00925886 0.00925847 0.999914 -0.00925847 
-0.00934498 -0.00934498 -0.999913 -0.00925886 -0.999957 0 -0.999957 -0.00925886 0 
0 -0.710388 -0.70381 0 -1 0 0 -0.710388 -0.70381 
0 -1 0 0 -0.710388 -0.70381 0 -1 0 
0 -0.710388 -0.70381 0 -1 0 0.00657752 -0.710373 -0.703795 
0.00925886 -0.999957 0 0.707107 -0.707107 0 -0.579132 -0.57377 -0.579132 
-0.579132 -0.57377 -0.579132 0.707107 -0.707107 0 0.707107 -0.707107 0 
-0.00925847 -0.00925847 -0.999914 -0.00654714 -0.707092 -0.707092 -0.707092 -0.00654714 -0.707092 
-0.57377 -0.579132 -0.579132 -0.57377 -0.579132 -0.579132 0.707107 -0.707107 0 
0.579132 -0.579132 -0.57377 0.707107 -0.707107 0 -0.579132 -0.57377 -0.579132 
-0.579132 -0.57377 -0.579132 0.707107 -0.707107 0 0.579132 -0.579132 -0.57377 
-0.57735 -0.57735 -0.57735 -0.57735 -0.57735 -0.57735 -0.999914 -0.00925847 -0.00925847 
0.57377 -0.579132 -0.579132 0.57377 -0.579132 -0.579132 0.00654714 -0.707092 -0.707092 
0.00654714 -0.707092 -0.707092 0.707092 -0.00654714 -0.707092 -1 0 0 
0.580931 -0.575552 -0.575552 -1 0 0 0.57377 -0.579132 -0.579132 
0.57377 -0.579132 -0.579132 0.00654714 -0.707092 -0.707092 0.00654714 -0.707092 -0.707092 
0.707092 -0.00654714 -0.707092 -1 0 0 0.580931 -0.575552 -0.575552 
-0.999957 0.00925886 0 0.57377 -0.579132 -0.579132 0.57377 -0.579132 -0.579132 
0 -0.707107 -0.707107 0 -0.707107 -0.707107 0 -0.710388 -0.70381 
0 -1 0 0.00657752 -0.710373 -0.703795 0.00925886 -0.999957 0 
0.999957 -0.00925886 0 -0.00925886 0.999957 0 -0.70381 0.710388 0 
-0.710388 0.70381 0 0.580931 -0.575552 -0.575552 -0.999957 0.00925886 0 
0.579132 -0.57377 -0.579132 0.707107 0 -0.707107 0.707107 0 -0.707107 
-0.00925886 0.999957 0 -0.70381 0.710388 0 -0.710388 0.70381 0 
0.580931 0.575552 -0.575552 0.579132 0.57377 -0.579132 -0.999957 0.00925886 0 
0.57735 0.57735 -0.57735 0.707092 0.00654714 -0.707092 -0.00925886 0.999957 0 
0 1 0 0 0.710388 -0.70381 0 0.710388 -0.70381 
0 0.710388 -0.70381 0 0.710388 -0.70381 0 0.710388 -0.70381 
0 0.710388 -0.70381 -0.575552 0.580931 -0.575552 -0.57735 0.57735 -0.57735 
-0.57735 0.57735 -0.57735 0.579132 0.579132 -0.57377 0.575552 0.580931 -0.575552 
0.00654714 0.707092 -0.707092 -0.57735 0.57735 -0.57735 -0.579132 0.579132 -0.57377 
0.579132 0.579132 -0.57377 0.579132 0.579132 -0.57377 -0.00925886 0.999957 0 
0 1 0 0.00925886 0.999957 0 0 -0.00934539 -0.999956 
0 -1 0 -0.70381 -0.710388 0 0.70381 -0.710388 0 
-0.00657752 -0.710373 0.703795 0 -0.710388 0.70381 0 -0.710388 0.70381 
0 -0.710388 0.70381 0 -0.710388 0.70381 0.00657752 -0.710373 0.703795 
-0.00925847 -0.00925847 -0.999914 -0.707092 -0.707092 -0.00654714 -0.707092 -0.707092 -0.00654714 
0 -0.70381 -0.710388 0.703795 -0.710373 -0.00657752 -0.57377 -0.579132 -0.579132 
0 -0.710388 0.70381 0 -0.710388 0.70381 0 -0.710388 0.70381 
0 -0.710388 0.70381 0 -0.710388 0.70381 0 -0.710388 0.70381 
0.00925847 -0.999914 0.00925847 0.999914 -0.00925847 0.00925847 -0.00934539 0 -0.999956 
-0.710388 -0.70381 0 -1 0 0 -0.70381 0 -0.710388 
0.579132 -0.579132 0.57377 0.579132 -0.57377 0.579132 -0.710388 0.70381 0 
-0.710373 0.703795 -0.00657752 -0.579132 -0.57377 -0.579132 0.575552 -0.580931 0.575552 
0 -1 0 0.57377 -0.579132 -0.579132 0 -0.999957 -0.00925886 
0 -0.707107 -0.707107 0 -0.999957 -0.00925886 0 -0.00925886 -0.999957 
0 -0.999957 -0.00925886 0.00934498 -0.00934498 -0.999913 0.00925886 -0.999957 0 
0.999957 -0.00925886 0 -1 0 0 0.70381 0 -0.710388 
0.00934539 0 -0.999956 0.710388 -0.70381 0 -1 0 0 
0.575552 -0.575552 -0.580931 0 -0.70381 -0.710388 0.703795 -0.710373 -0.00657752 
0 -0.00925886 -0.999957 0.00934498 -0.00934498 -0.999913 0.00925886 -0.999957 0 
0.999957 -0.00925886 0 -1 0 0 0.70381 0 -0.710388 
0.00934539 0 -0.999956 1 0 0 -1 0 0 
0.575552 -0.575552 -0.580931 0.00660833 -0.707091 -0.707091 1 0 0 
-0.999914 0.00925847 0.00925847 0.580931 -0.575552 0.575552 0.575552 -0.580931 0.575552 
0.00657752 -0.710373 0.703795 -0.00925847 0.999914 0.00925847 -0.703795 0.710373 0.00657752 
-0.710388 0.70381 0 0.575552 -0.580931 0.575552 0 -0.710388 0.70381 
0 -0.999957 -0.00925886 0.57377 -0.579132 -0.579132 0.00934498 -0.00934498 -0.999913 
0.00925886 -0.999957 0 0.999957 -0.00925886 0 -0.999914 0.00925847 0.00925847 
0.710388 0 -0.70381 1 0 0 -0.00925847 0.999914 0.00925847 
-0.70381 0.710388 0 -0.710388 0.70381 0 0.575552 0.575552 -0.580931 
0.00934498 0.00934498 -0.999913 0.999957 0.00925886 0 -0.999957 0.00925886 0 
0.710373 0.00657752 -0.703795 0.707107 0.707107 0 0.707107 0.707107 0 
-0.00925886 0.999957 0 -0.70381 0.710388 0 -0.00657752 0.703795 -0.710373 
-0.710373 0.703795 -0.00657752 0 0.70381 -0.710388 0 0.70381 -0.710388 
0 0.70381 -0.710388 0 0.70381 -0.710388 0 0.70381 -0.710388 
-0.575552 0.575552 -0.580931 0.575552 0.575552 -0.580931 0.00657752 0.710373 -0.703795 
0.707107 0.707107 0 0.707107 0.707107 0 -0.00925847 0.00925847 -0.999914 
-0.999914 0.00925847 -0.00925847 0 0.00925886 -0.999957 0 0.00925886 -0.999957 
0 0.00925886 -0.999957 0 0.00925886 -0.999957 0 0.00925886 -0.999957 
0 0.00925886 -0.999957 -0.57377 0.579132 -0.579132 0.575552 0.580931 -0.575552 
0.00934498 0.00934498 -0.999913 0.707107 0.707107 0 0.707107 0.707107 0 
-0.00925847 0.999914 -0.00925847 0 0.999957 -0.00925886 0 0.999957 -0.00925886 
0 0.999957 -0.00925886 0 0.999957 -0.00925886 0 0.999957 -0.00925886 
0 0.999957 -0.00925886 0 0.999957 -0.00925886 0 1 0 
0 1 0 0 1 0 0 1 0 
0.00925886 0.999957 0 0 -0.710388 0.70381 -0.00925847 -0.999914 0.00925847 
-0.999914 -0.00925847 0.00925847 0 -0.707107 0.707107 0 -0.999957 0.00925886 
0 -0.999957 0.00925886 0 -0.999957 0.00925886 0 -0.999957 0.00925886 
0 -0.999957 0.00925886 0 -0.999957 0.00925886 0.00925847 -0.999914 0.00925847 
0.707092 -0.00654714 0.707092 0.707092 -0.00654714 0.707092 -0.710388 0 0.70381 
-0.707107 0 0.707107 0.579132 -0.57377 0.579132 0.579132 -0.57377 0.579132 
-0.999957 0 0.00925886 0.57377 -0.579132 0.579132 0 -0.999957 0.00925886 
0 -0.999957 0.00925886 0 -0.999957 0.00925886 0 -0.999957 0.00925886 
0.00925847 -0.999914 0.00925847 0.710373 -0.00657752 0.703795 0.707092 -0.00654714 0.707092 
-0.999957 0 0.00925886 0.580931 -0.575552 0.575552 0.579132 -0.57377 0.579132 
-0.999957 0 0.00925886 0.57377 -0.579132 0.579132 0.00925847 -0.999914 0.00925847 
0.710373 -0.00657752 0.703795 0.707092 -0.00654714 0.707092 -0.999957 0 0.00925886 
0.710388 0 0.70381 0.707107 0 0.707107 -0.999914 0.00925847 0.00925847 
0.580931 -0.575552 0.575552 0.579132 -0.57377 0.579132 -0.00654714 0.707092 0.707092 
-0.00654714 0.707092 0.707092 -0.57377 0.579132 0.579132 -0.57377 0.579132 0.579132 
-0.579132 0.57377 0.579132 0.57735 -0.57735 0.57735 0.707092 -0.707092 0.00654714 
-0.999914 0.00925847 0.00925847 0.703795 -0.710373 0.00657752 0 -0.999957 0.00925886 
0.00925847 -0.999914 0.00925847 0.710373 -0.00657752 0.703795 0.707092 -0.00654714 0.707092 
-0.57735 0.57735 0.57735 -0.57735 0.57735 0.57735 -0.57735 0.57735 0.57735 
0.710388 0 0.70381 0.707107 0 0.707107 -0.707092 0.707092 0.00654714 
-0.710388 0.70381 0 0.710373 0.00657752 0.703795 0.707092 0.00654714 0.707092 
-0.999957 0.00925886 0 0.579132 0.579132 0.57377 0.57735 0.57735 0.57735 