# vtk DataFile Version 3.0
vtk output
ASCII
DATASET POLYDATA
POINTS 4372 float
100 134 58.0139 100 133.014 59 99.0139 134 59 
100.986 134 59 97 135 58.0139 97 134.014 59 
96.0139 135 59 98 135 58.0139 98 134.014 59 
99 135 58.0139 99 134.014 59 100 135 58.0139 
100.986 135 59 97 135.986 59 98 135.986 59 
99 135.986 59 100 135.986 59 99 139 58.0139 
99 138.014 59 98.0139 139 59 100 139 58.0139 
100 138.014 59 101 139 58.0139 101 138.014 59 
102 139 58.0139 102 138.014 59 103 139 58.0139 
103 138.014 59 104 139 58.0139 104 138.014 59 
104.986 139 59 99 139.986 59 100 139.986 59 
101 139.986 59 102 139.986 59 103 139.986 59 
104 139.986 59 97 134 59.0139 97 133.014 60 
96.0139 134 60 98 134 59.0139 98 133.014 60 
99 134 59.0139 99 133.014 60 100 133.014 60 
101 134 59.0139 101 133.014 60 102 134 59.0139 
102 133.014 60 103 134 59.0139 103 133.014 60 
104 134 59.0139 104 133.014 60 104.986 134 60 
96 135 59.0139 96 134.014 60 95.0139 135 60 
101 135 59.0139 102 135 59.0139 103 135 59.0139 
104 135 59.0139 104.986 135 60 96 135.986 60 
97 136 59.0139 96.0139 136 60 98 136 59.0139 
99 136 59.0139 100 136 59.0139 101 136 59.0139 
102 136 59.0139 103 136 59.0139 104 136 59.0139 
104.986 136 60 97 137 59.0139 96.0139 137 60 
98 137 59.0139 99 137 59.0139 100 137 59.0139 
101 137 59.0139 102 137 59.0139 103 137 59.0139 
104 137 59.0139 104.986 137 60 97 138 59.0139 
96.0139 138 60 98 138 59.0139 99 138 59.0139 
100 138 59.0139 101 138 59.0139 102 138 59.0139 
103 138 59.0139 104 138 59.0139 105 137.014 60 
105 138 59.0139 106 138 59.0139 106 137.014 60 
106.986 138 60 97 139 59.0139 96.0139 139 60 
98 139 59.0139 105 139 59.0139 105.986 139 60 
106 138.986 60 97 139.986 60 98 139.986 60 
99 140 59.0139 98.0139 140 60 100 140 59.0139 
101 140 59.0139 102 140 59.0139 103 140 59.0139 
104 140 59.0139 104.986 140 60 105 139.986 60 
99 141 59.0139 98.0139 141 60 100 141 59.0139 
101 141 59.0139 102 141 59.0139 103 141 59.0139 
103.986 141 60 104 140.986 60 99 141.986 60 
100 141.986 60 101 141.986 60 102 141.986 60 
103 141.986 60 96 134 60.0139 96 133.014 61 
95.0139 134 61 97 133.014 61 98 133.014 61 
99 133.014 61 100 133.014 61 101 133.014 61 
102 133.014 61 103 133.014 61 104 133.014 61 
104.986 134 61 95 135 60.0139 95 134.014 61 
94.0139 135 61 104.986 135 61 95 135.986 61 
96 136 60.0139 95.0139 136 61 104.986 136 61 
96 137 60.0139 95.0139 137 61 104.986 137 61 
96 138 60.0139 95.0139 138 61 105 137.014 61 
106 138 60.9861 105.986 138 61 96 138.986 61 
96.0139 139 61 105 139 60.9861 104.986 139 61 
105 138.986 61 97 139.986 61 98 140 60.0139 
97.0139 140 61 104.986 140 61 98 141 60.0139 
97.0139 141 61 104 141 60.0139 104.986 141 61 
98 141.986 61 99 141.986 61 100 141.986 61 
101 141.986 61 102 142 60.0139 101.014 142 61 
102.986 142 61 103 141.986 61 104 141.986 61 
102 143 60.0139 101.014 143 61 102.986 143 61 
102 143.986 61 95 134 61.0139 95 133.014 62 
94.0139 134 62 96 133.014 62 97 133.014 62 
98 133.014 62 99 133.014 62 100 133.014 62 
101 133.014 62 102 133.014 62 103 133.014 62 
104 133.014 62 104.986 134 62 94.0139 135 62 
104.986 135 62 95 136 61.0139 94.0139 136 62 
104.986 136 62 95 137 61.0139 94.0139 137 62 
104.986 137 62 95 138 61.0139 94.0139 138 62 
105 138 61.9861 104.986 138 62 95 139 61.0139 
94.0139 139 62 96 139 61.0139 104.986 139 62 
95 139.986 62 96 139.986 62 97 140 61.0139 
96.0139 140 62 104.986 140 62 97 141 61.0139 
96.0139 141 62 104.986 141 62 97 141.986 62 
98 141.986 62 99 142 61.0139 98.0139 142 62 
100 142 61.0139 101 142 61.0139 103 142 61.0139 
104 142 61.0139 105 141.014 62 105 142 61.0139 
106 142 61.0139 106 141.014 62 106.986 142 62 
99 143 61.0139 98.0139 143 62 100 143 61.0139 
101 143 61.0139 103 143 61.0139 104 143 61.0139 
105 143 61.0139 106 143 61.0139 106.986 143 62 
99 143.986 62 100 143.986 62 101 143.986 62 
102 143.986 62 103 144 61.0139 102.014 144 62 
104 144 61.0139 105 144 61.0139 106 144 61.0139 
106.986 144 62 103 145 61.0139 102.014 145 62 
104 145 61.0139 105 145 61.0139 105.986 145 62 
106 144.986 62 103 145.986 62 104 145.986 62 
105 145.986 62 95 133.014 63 94.0139 134 63 
96 133.014 63 97 133.014 63 98 133.014 63 
99 133.014 63 100 133.014 63 101 133.014 63 
102 133.014 63 103 133.014 63 104 134 62.9861 
103.986 134 63 94.0139 135 63 104 135 62.9861 
103.986 135 63 94.0139 136 63 104 136 62.9861 
103.986 136 63 94.0139 137 63 104 137 62.9861 
103.986 137 63 94.0139 138 63 104 138 62.9861 
103.986 138 63 94.0139 139 63 104 139 62.9861 
103.986 139 63 95 139.986 63 96 139.986 63 
96.0139 140 63 104 139.014 63 104.986 140 63 
96.0139 141 63 104.986 141 63 97 141.986 63 
98 142 62.0139 97.0139 142 63 105 141.014 63 
106 141.014 63 106.986 142 63 98 142.986 63 
98.0139 143 63 106.986 143 63 99 143.986 63 
100 144 62.0139 99.0139 144 63 100.986 144 63 
101 143.986 63 102 144 62.0139 101.014 144 63 
106.986 144 63 100 145 62.0139 99.0139 145 63 
100.986 145 63 102 145 62.0139 101.014 145 63 
106 145 62.0139 106.986 145 63 100 146 62.0139 
99.0139 146 63 100.986 146 63 102 145.986 63 
103 145.986 63 104 145.986 63 105 145.986 63 
106 145.986 63 100 146.986 63 95 133.014 64 
94.0139 134 64 96 133.014 64 97 133.014 64 
98 133.014 64 99 133.014 64 100 133.014 64 
101 133.014 64 102 133.014 64 103 134 63.9861 
102.986 134 64 94.0139 135 64 103 135 63.9861 
102.986 135 64 94.0139 136 64 103 136 63.9861 
102.986 136 64 94.0139 137 64 103 137 63.9861 
102.986 137 64 94.0139 138 64 103 138 63.9861 
102.986 138 64 94.0139 139 64 103 139 63.9861 
102.986 139 64 95 139.986 64 96 139.986 64 
96.0139 140 64 103 139.014 64 104 139.014 64 
104.986 140 64 96.0139 141 64 104.986 141 64 
97 142 63.0139 96.0139 142 64 105 141.014 64 
106 141.014 64 106.986 142 64 97 143 63.0139 
96.0139 143 64 98 143 63.0139 106.986 143 64 
97 143.986 64 98 143.986 64 99 144 63.0139 
98.0139 144 64 101 144 63.0139 106.986 144 64 
99 145 63.0139 98.0139 145 64 101 145 63.0139 
106.986 145 64 99 146 63.0139 98.0139 146 64 
101 146 63.0139 102 146 63.0139 103 146 63.0139 
104 146 63.0139 105 146 63.0139 106 146 63.0139 
107 145.014 64 107 146 63.0139 108 146 63.0139 
108 145.014 64 108.986 146 64 99 147 63.0139 
98.0139 147 64 100 147 63.0139 101 147 63.0139 
102 147 63.0139 103 147 63.0139 104 147 63.0139 
105 147 63.0139 106 147 63.0139 107 147 63.0139 
108 147 63.0139 108.986 147 64 99 147.986 64 
100 147.986 64 100.014 148 64 101 148 63.0139 
102 148 63.0139 103 148 63.0139 104 148 63.0139 
105 148 63.0139 106 148 63.0139 107 148 63.0139 
108 148 63.0139 108.986 148 64 101 149 63.0139 
100.014 149 64 102 149 63.0139 103 149 63.0139 
104 149 63.0139 105 149 63.0139 106 149 63.0139 
107 149 63.0139 108 149 63.0139 108.986 149 64 
101 149.986 64 102 149.986 64 102.014 150 64 
103 150 63.0139 104 150 63.0139 105 150 63.0139 
106 150 63.0139 107 150 63.0139 108 150 63.0139 
108.986 150 64 103 151 63.0139 102.014 151 64 
104 151 63.0139 105 151 63.0139 106 151 63.0139 
107 151 63.0139 107.986 151 64 108 150.986 64 
103 151.986 64 104 151.986 64 105 151.986 64 
106 151.986 64 107 151.986 64 93 133 64.0139 
93 132.014 65 92.0139 133 65 94 133 64.0139 
94 132.014 65 95 133 64.0139 95 132.014 65 
96 133 64.0139 96 132.014 65 97 133 64.0139 
97 132.014 65 98 133 64.0139 98 132.014 65 
98.9861 133 65 93 133.986 65 93.0139 134 65 
94 134 64.0139 99 133.014 65 100 133.014 65 
101 133.014 65 102 134 64.9861 101.986 134 65 
94 135 64.0139 93.0139 135 65 102 134.014 65 
102.986 135 65 94 136 64.0139 93.0139 136 65 
102.986 136 65 94 137 64.0139 93.0139 137 65 
102.986 137 65 94 137.986 65 94.0139 138 65 
102.986 138 65 94.0139 139 65 102.986 139 65 
95 139.986 65 96 140 64.0139 95.0139 140 65 
103 139.014 65 104 139.014 65 104.986 140 65 
96 141 64.0139 95.0139 141 65 104.986 141 65 
96 141.986 65 96.0139 142 65 105 141.014 65 
106 141.014 65 106.986 142 65 96.0139 143 65 
106.986 143 65 97 143.986 65 98 144 64.0139 
97.0139 144 65 106.986 144 65 98 145 64.0139 
97.0139 145 65 106.986 145 65 98 146 64.0139 
97.0139 146 65 107 145.014 65 108 145.014 65 
108.986 146 65 98 146.986 65 98.0139 147 65 
108.986 147 65 99 147.986 65 100 147.986 65 
100.014 148 65 108.986 148 65 100.014 149 65 
108.986 149 65 101 149.986 65 102 149.986 65 
102.014 150 65 108.986 150 65 102.014 151 65 
108 151 64.0139 108.986 151 65 103 151.986 65 
104 151.986 65 105 151.986 65 106 151.986 65 
107 151.986 65 108 151.986 65 93 132 65.0139 
93 131.014 66 92.0139 132 66 94 132 65.0139 
94 131.014 66 95 132 65.0139 95 131.014 66 
96 132 65.0139 96 131.014 66 97 132 65.0139 
97 131.014 66 98 132 65.0139 98 131.014 66 
98.9861 132 66 92 133 65.0139 92 132.014 66 
91.0139 133 66 98.9861 133 66 92 133.986 66 
93 134 65.0139 92.0139 134 66 99 133.014 66 
100 133.014 66 101 134 65.9861 100.986 134 66 
93 135 65.0139 92.0139 135 66 101 135 65.9861 
100.986 135 66 102 135 65.9861 93 136 65.0139 
92.0139 136 66 101 135.014 66 102 135.014 66 
102.986 136 66 93 137 65.0139 92.0139 137 66 
102.986 137 66 93 137.986 66 94 137.986 66 
94.0139 138 66 102.986 138 66 94.0139 139 66 
102.986 139 66 95 140 65.0139 94.0139 140 66 
103 139.014 66 104 139.014 66 104.986 140 66 
95 141 65.0139 94.0139 141 66 104.986 141 66 
95 141.986 66 96 141.986 66 96.0139 142 66 
105 141.014 66 106 141.014 66 106.986 142 66 
96.0139 143 66 106.986 143 66 97 144 65.0139 
96.0139 144 66 106.986 144 66 97 145 65.0139 
96.0139 145 66 106.986 145 66 97 145.986 66 
98 145.986 66 98 146 65.9861 98.0139 146 66 
107 145.014 66 108 145.014 66 108.986 146 66 
98.0139 147 66 108.986 147 66 99 147.986 66 
100 147.986 66 100.014 148 66 109 147.014 66 
109 148 65.0139 110 148 65.0139 110 147.014 66 
110.986 148 66 100.014 149 66 109 149 65.0139 
110 149 65.0139 110.986 149 66 101 149.986 66 
102 149.986 66 102.014 150 66 109 150 65.0139 
110 150 65.0139 110.986 150 66 102.014 151 66 
109 151 65.0139 109.986 151 66 110 150.986 66 
103 151.986 66 104 151.986 66 105 151.986 66 
106 151.986 66 107 152 65.0139 106.014 152 66 
108 152 65.0139 108.986 152 66 109 151.986 66 
[...]
POINT_DATA 4372
SCALARS scalars float
LOOKUP_TABLE default
1 1 1 1 1 1 1 1 1 
1 1 1 1 1 1 1 1 1 
1 1 1 1 1 1 1 1 1 
1 1 1 1 1 1 1 1 1 
1 1 1 1 1 1 1 1 1 
1 1 1 1 1 1 1 1 1 
1 1 1 1 1 1 1 1 1 
1 1 1 1 1 1 1 1 1 
1 1 1 1 1 1 1 1 1 
1 1 1 1 1 1 1 1 1 
1 1 1 1 1 1 1 1 1 
1 1 1 1 1 1 1 1 1 
1 1 1 1 1 1 1 1 1 
1 1 1 1 1 1 1 1 1 
1 1 1 1 1 1 1 1 1 
1 1 1 1 1 1 1 1 1 
1 1 1 1 1 1 1 1 1 
1 1 1 1 1 1 1 1 1 
1 1 1 1 1 1 1 1 1 
1 1 1 1 1 1 1 1 1 
1 1 1 1 1 1 1 1 1 
1 1 1 1 1 1 1 1 1 
1 1 1 1 1 1 1 1 1 
1 1 1 1 1 1 1 1 1 
1 1 1 1 1 1 1 1 1 
1 1 1 1 1 1 1 1 1 
1 1 1 1 1 1 1 1 1 
1 1 1 1 1 1 1 1 1 
1 1 1 1 1 1 1 1 1 
1 1 1 1 1 1 1 1 1 
1 1 1 1 1 1 1 1 1 
1 1 1 1 1 1 1 1 1 
1 1 1 1 1 1 1 1 1 
1 1 1 1 1 1 1 1 1 
1 1 1 1 1 1 1 1 1 
1 1 1 1 1 1 1 1 1 
1 1 1 1 1 1 1 1 1 
1 1 1 1 1 1 1 1 1 
1 1 1 1 1 1 1 1 1 
1 1 1 1 1 1 1 1 1 
1 1 1 1 1 1 1 1 1 
1 1 1 1 1 1 1 1 1 
1 1 1 1 1 1 1 1 1 
1 1 1 1 1 1 1 1 1 
1 1 1 1 1 1 1 1 1 
1 1 1 1 1 1 1 1 1 
1 1 1 1 1 1 1 1 1 
1 1 1 1 1 1 1 1 1 
1 1 1 1 1 1 1 1 1 
1 1 1 1 1 1 1 1 1 
1 1 1 1 1 1 1 1 1 
1 1 1 1 1 1 1 1 1 
1 1 1 1 1 1 1 1 1 
1 1 1 1 1 1 1 1 1 
1 1 1 1 1 1 1 1 1 
1 1 1 1 1 1 1 1 1 
1 1 1 1 1 1 1 1 1 
1 1 1 1 1 1 1 1 1 
1 1 1 1 1 1 1 1 1 
1 1 1 1 1 1 1 1 1 
1 1 1 1 1 1 1 1 1 
1 1 1 1 1 1 1 1 1 
1 1 1 1 1 1 1 1 1 
1 1 1 1 1 1 1 1 1 
1 1 1 1 1 1 1 1 1 
1 1 1 1 1 1 1 1 1 
1 1 1 1 1 1 1 1 1 
1 1 1 1 1 1 1 1 1 
1 1 1 1 1 1 1 1 1 
1 1 1 1 1 1 1 1 1 
1 1 1 1 1 1 1 1 1 
1 1 1 1 1 1 1 1 1 
1 1 1 1 1 1 1 1 1 
1 1 1 1 1 1 1 1 1 
1 1 1 1 1 1 1 1 1 
1 1 1 1 1 1 1 1 1 
1 1 1 1 1 1 1 1 1 
1 1 1 1 1 1 1 1 1 
1 1 1 1 1 1 1 1 1 
1 1 1 1 1 1 1 1 1 
1 1 1 1 1 1 1 1 1 
1 1 1 1 1 1 1 1 1 
1 1 1 1 1 1 1 1 1 
1 1 1 1 1 1 1 1 1 
1 1 1 1 1 1 1 1 1 
1 1 1 1 1 1 1 1 1 
1 1 1 1 1 1 1 1 1 
1 1 1 1 1 1 1 1 1 
1 1 1 1 1 1 1 1 1 
1 1 1 1 1 1 1 1 1 
1 1 1 1 1 1 1 1 1 
1 1 1 1 1 1 1 1 1 
1 1 1 1 1 1 1 1 1 
1 1 1 1 1 1 1 1 1 
1 1 1 1 1 1 1 1 1 
1 1 1 1 1 1 1 1 1 
1 1 1 1 1 1 1 1 1 
1 1 1 1 1 1 1 1 1 
1 1 1 1 1 1 1 1 1 
1 1 1 1 1 1 1 1 1 
1 1 1 1 1 1 1 1 1 
1 1 1 1 1 1 1 1 1 
1 1 1 1 1 1 1 1 1 
1 1 1 1 1 1 1 1 1 
1 1 1 1 1 1 1 1 1 
1 1 1 1 1 1 1 1 1 
1 1 1 1 1 1 1 1 1 
1 1 1 1 1 1 1 1 1 
1 1 1 1 1 1 1 1 1 
1 1 1 1 1 1 1 1 1 
1 1 1 1 1 1 1 1 1 
1 1 1 1 1 1 1 1 1 
1 1 1 1 1 1 1 1 1 
1 1 1 1 1 1 1 1 1 
1 1 1 1 1 1 1 1 1 
1 1 1 1 1 1 1 1 1 
1 1 1 1 1 1 1 1 1 
1 1 1 1 1 1 1 1 1 
1 1 1 1 1 1 1 1 1 
1 1 1 1 1 1 1 1 1 
1 1 1 1 1 1 1 1 1 
1 1 1 1 1 1 1 1 1 
1 1 1 1 1 1 1 1 1 
1 1 1 1 1 1 1 1 1 
1 1 1 1 1 1 1 1 1 
1 1 1 1 1 1 1 1 1 
1 1 1 1 1 1 1 1 1 
1 1 1 1 1 1 1 1 1 
1 1 1 1 1 1 1 1 1 
1 1 1 1 1 1 1 1 1 
1 1 1 1 1 1 1 1 1 
1 1 1 1 1 1 1 1 1 
1 1 1 1 1 1 1 1 1 
1 1 1 1 1 1 1 1 1 
1 1 1 1 1 1 1 1 1 
1 1 1 1 1 1 1 1 1 
1 1 1 1 1 1 1 1 1 
1 1 1 1 1 1 1 1 1 
1 1 1 1 1 1 1 1 1 
1 1 1 1 1 1 1 1 1 
1 1 1 1 1 1 1 1 1 
1 1 1 1 1 1 1 1 1 
1 1 1 1 1 1 1 1 1 
1 1 1 1 1 1 1 1 1 
1 1 1 1 1 1 1 1 1 
1 1 1 1 1 1 1 1 1 
1 1 1 1 1 1 1 1 1 
1 1 1 1 1 1 1 1 1 
1 1 1 1 1 1 1 1 1 
1 1 1 1 1 1 1 1 1 
1 1 1 1 1 1 1 1 1 
1 1 1 1 1 1 1 1 1 
1 1 1 1 1 1 1 1 1 
1 1 1 1 1 1 1 1 1 
1 1 1 1 1 1 1 1 1 
1 1 1 1 1 1 1 1 1 
1 1 1 1 1 1 1 1 1 
1 1 1 1 1 1 1 1 1 
1 1 1 1 1 1 1 1 1 
1 1 1 1 1 1 1 1 1 
1 1 1 1 1 1 1 1 1 
1 1 1 1 1 1 1 1 1 
1 1 1 1 1 1 1 1 1 
1 1 1 1 1 1 1 1 1 
1 1 1 1 1 1 1 1 1 
1 1 1 1 1 1 1 1 1 
1 1 1 1 1 1 1 1 1 
1 1 1 1 1 1 1 1 1 
1 1 1 1 1 1 1 1 1 
1 1 1 1 1 1 1 1 1 
1 1 1 1 1 1 1 1 1 
1 1 1 1 1 1 1 1 1 
1 1 1 1 1 1 1 1 1 
1 1 1 1 1 1 1 1 1 
1 1 1 1 1 1 1 1 1 
1 1 1 1 1 1 1 1 1 
1 1 1 1 1 1 1 1 1 
1 1 1 1 1 1 1 1 1 
1 1 1 1 1 1 1 1 1 
1 1 1 1 1 1 1 1 1 
1 1 1 1 1 1 1 1 1 
1 1 1 1 1 1 1 1 1 
1 1 1 1 1 1 1 1 1 
1 1 1 1 1 1 1 1 1 
1 1 1 1 1 1 1 1 1 
1 1 1 1 1 1 1 1 1 
1 1 1 1 1 1 1 1 1 
1 1 1 1 1 1 1 1 1 
1 1 1 1 1 1 1 1 1 
1 1 1 1 1 1 1 1 1 
1 1 1 1 1 1 1 1 1 
1 1 1 1 1 1 1 1 1 
1 1 1 1 1 1 1 1 1 
1 1 1 1 1 1 1 1 1 
1 1 1 1 1 1 1 1 1 
1 1 1 1 1 1 1 1 1 
1 1 1 1 1 1 1 1 1 
1 1 1 1 1 1 1 1 1 
1 1 1 1 1 1 1 1 1 
1 1 1 1 1 1 1 1 1 
1 1 1 1 1 1 1 1 1 
1 1 1 1 1 1 1 1 1 
1 1 1 1 1 1 1 1 1 
1 1 1 1 1 1 1 1 1 
1 1 1 1 1 1 1 1 1 
1 1 1 1 1 1 1 1 1 
1 1 1 1 1 1 1 1 1 
1 1 1 1 1 1 1 1 1 
1 1 1 1 1 1 1 1 1 
1 1 1 1 1 1 1 1 1 
1 1 1 1 1 1 1 1 1 
1 1 1 1 1 1 1 1 1 
1 1 1 1 1 1 1 1 1 
1 1 1 1 1 1 1 1 1 
1 1 1 1 1 1 1 1 1 
1 1 1 1 1 1 1 1 1 
1 1 1 1 1 1 1 1 1 
1 1 1 1 1 1 1 1 1 
1 1 1 1 1 1 1 1 1 
1 1 1 1 1 1 1 1 1 
1 1 1 1 1 1 1 1 1 
1 1 1 1 1 1 1 1 1 
1 1 1 1 1 1 1 1 1 
1 1 1 1 1 1 1 1 1 
1 1 1 1 1 1 1 1 1 
1 1 1 1 1 1 1 1 1 
1 1 1 1 1 1 1 1 1 
1 1 1 1 1 1 1 1 1 
1 1 1 1 1 1 1 1 1 
1 1 1 1 1 1 1 1 1 
1 1 1 1 1 1 1 1 1 
1 1 1 1 1 1 1 1 1 
1 1 1 1 1 1 1 1 1 
1 1 1 1 1 1 1 1 1 
1 1 1 1 1 1 1 1 1 
1 1 1 1 1 1 1 1 1 
1 1 1 1 1 1 1 1 1 
1 1 1 1 1 1 1 1 1 
1 1 1 1 1 1 1 1 1 
1 1 1 1 1 1 1 1 1 
1 1 1 1 1 1 1 1 1 
1 1 1 1 1 1 1 1 1 
1 1 1 1 1 1 1 1 1 
1 1 1 1 1 1 1 1 1 
1 1 1 1 1 1 1 1 1 
1 1 1 1 1 1 1 1 1 
1 1 1 1 1 1 1 1 1 
1 1 1 1 1 1 1 1 1 
1 1 1 1 1 1 1 1 1 
1 1 1 1 1 1 1 1 1 
1 1 1 1 1 1 1 1 1 
1 1 1 1 1 1 1 1 1 
1 1 1 1 1 1 1 1 1 
1 1 1 1 1 1 1 1 1 
1 1 1 1 1 1 1 1 1 
1 1 1 1 1 1 1 1 1 
1 1 1 1 1 1 1 1 1 
1 1 1 1 1 1 1 1 1 
1 1 1 1 1 1 1 1 1 
1 1 1 1 1 1 1 1 1 
1 1 1 1 1 1 1 1 1 
1 1 1 1 1 1 1 1 1 
1 1 1 1 1 1 1 1 1 
1 1 1 1 1 1 1 1 1 
1 1 1 1 1 1 1 1 1 
1 1 1 1 1 1 1 1 1 
1 1 1 1 1 1 1 1 1 
1 1 1 1 1 1 1 1 1 
1 1 1 1 1 1 1 1 1 
1 1 1 1 1 1 1 1 1 
1 1 1 1 1 1 1 1 1 
1 1 1 1 1 1 1 1 1 
1 1 1 1 1 1 1 1 1 
1 1 1 1 1 1 1 1 1 
1 1 1 1 1 1 1 1 1 
1 1 1 1 1 1 1 1 1 
1 1 1 1 1 1 1 1 1 
1 1 1 1 1 1 1 1 1 
1 1 1 1 1 1 1 1 1 
1 1 1 1 1 1 1 1 1 
1 1 1 1 1 1 1 1 1 
1 1 1 1 1 1 1 1 1 
1 1 1 1 1 1 1 1 1 
1 1 1 1 1 1 1 1 1 
1 1 1 1 1 1 1 1 1 
1 1 1 1 1 1 1 1 1 
1 1 1 1 1 1 1 1 1 
1 1 1 1 1 1 1 1 1 
1 1 1 1 1 1 1 1 1 
1 1 1 1 1 1 1 1 1 
1 1 1 1 1 1 1 1 1 
1 1 1 1 1 1 1 1 1 
1 1 1 1 1 1 1 1 1 
1 1 1 1 1 1 1 1 1 
1 1 1 1 1 1 1 1 1 
1 1 1 1 1 1 1 1 1 
1 1 1 1 1 1 1 1 1 
1 1 1 1 1 1 1 1 1 
1 1 1 1 1 1 1 1 1 
1 1 1 1 1 1 1 1 1 
1 1 1 1 1 1 1 1 1 
1 1 1 1 1 1 1 1 1 
1 1 1 1 1 1 1 1 1 
1 1 1 1 1 1 1 1 1 
1 1 1 1 1 1 1 1 1 
1 1 1 1 1 1 1 1 1 
1 1 1 1 1 1 1 1 1 
1 1 1 1 1 1 1 1 1 
1 1 1 1 1 1 1 1 1 
1 1 1 1 1 1 1 1 1 
1 1 1 1 1 1 1 1 1 
1 1 1 1 1 1 1 1 1 
1 1 1 1 1 1 1 1 1 
1 1 1 1 1 1 1 1 1 
1 1 1 1 1 1 1 1 1 
1 1 1 1 1 1 1 1 1 
1 1 1 1 1 1 1 1 1 
1 1 1 1 1 1 1 1 1 
1 1 1 1 1 1 1 1 1 
1 1 1 1 1 1 1 1 1 
1 1 1 1 1 1 1 1 1 
1 1 1 1 1 1 1 1 1 
1 1 1 1 1 1 1 1 1 
1 1 1 1 1 1 1 1 1 
1 1 1 1 1 1 1 1 1 
1 1 1 1 1 1 1 1 1 
1 1 1 1 1 1 1 1 1 
1 1 1 1 1 1 1 1 1 
1 1 1 1 1 1 1 1 1 
1 1 1 1 1 1 1 1 1 
1 1 1 1 1 1 1 1 1 
1 1 1 1 1 1 1 1 1 
1 1 1 1 1 1 1 1 1 
1 1 1 1 1 1 1 1 1 
1 1 1 1 1 1 1 1 1 
1 1 1 1 1 1 1 1 1 
1 1 1 1 1 1 1 1 1 
1 1 1 1 1 1 1 1 1 
1 1 1 1 1 1 1 1 1 
1 1 1 1 1 1 1 1 1 
1 1 1 1 1 1 1 1 1 
1 1 1 1 1 1 1 1 1 
1 1 1 1 1 1 1 1 1 
1 1 1 1 1 1 1 1 1 
1 1 1 1 1 1 1 1 1 
1 1 1 1 1 1 1 1 1 
1 1 1 1 1 1 1 1 1 
1 1 1 1 1 1 1 1 1 
1 1 1 1 1 1 1 1 1 
1 1 1 1 1 1 1 1 1 
1 1 1 1 1 1 1 1 1 
1 1 1 1 1 1 1 1 1 
1 1 1 1 1 1 1 1 1 
1 1 1 1 1 1 1 1 1 
1 1 1 1 1 1 1 1 1 
1 1 1 1 1 1 1 1 1 
1 1 1 1 1 1 1 1 1 
1 1 1 1 1 1 1 1 1 
1 1 1 1 1 1 1 1 1 
1 1 1 1 1 1 1 1 1 
1 1 1 1 1 1 1 1 1 
1 1 1 1 1 1 1 1 1 
1 1 1 1 1 1 1 1 1 
1 1 1 1 1 1 1 1 1 
1 1 1 1 1 1 1 1 1 
1 1 1 1 1 1 1 1 1 
1 1 1 1 1 1 1 1 1 
1 1 1 1 1 1 1 1 1 
1 1 1 1 1 1 1 1 1 
1 1 1 1 1 1 1 1 1 
1 1 1 1 1 1 1 1 1 
1 1 1 1 1 1 1 1 1 
1 1 1 1 1 1 1 1 1 
1 1 1 1 1 1 1 1 1 
1 1 1 1 1 1 1 1 1 
1 1 1 1 1 1 1 1 1 
1 1 1 1 1 1 1 1 1 
1 1 1 1 1 1 1 1 1 
1 1 1 1 1 1 1 1 1 
1 1 1 1 1 1 1 1 1 
1 1 1 1 1 1 1 1 1 
1 1 1 1 1 1 1 1 1 
1 1 1 1 1 1 1 1 1 
1 1 1 1 1 1 1 1 1 
1 1 1 1 1 1 1 1 1 
1 1 1 1 1 1 1 1 1 
1 1 1 1 1 1 1 1 1 
1 1 1 1 1 1 1 1 1 
1 1 1 1 1 1 1 1 1 
1 1 1 1 1 1 1 1 1 
1 1 1 1 1 1 1 1 1 
1 1 1 1 1 1 1 1 1 
1 1 1 1 1 1 1 1 1 
1 1 1 1 1 1 1 1 1 
1 1 1 1 1 1 1 1 1 
1 1 1 1 1 1 1 1 1 
1 1 1 1 1 1 1 1 1 
1 1 1 1 1 1 1 1 1 
1 1 1 1 1 1 1 1 1 
1 1 1 1 1 1 1 1 1 
1 1 1 1 1 1 1 1 1 
1 1 1 1 1 1 1 1 1 
1 1 1 1 1 1 1 1 1 
1 1 1 1 1 1 1 1 1 
1 1 1 1 1 1 1 1 1 
1 1 1 1 1 1 1 1 1 
1 1 1 1 1 1 1 1 1 
1 1 1 1 1 1 1 1 1 
1 1 1 1 1 1 1 1 1 
1 1 1 1 1 1 1 1 1 
1 1 1 1 1 1 1 1 1 
1 1 1 1 1 1 1 1 1 
1 1 1 1 1 1 1 1 1 
1 1 1 1 1 1 1 1 1 
1 1 1 1 1 1 1 1 1 
1 1 1 1 1 1 1 1 1 
1 1 1 1 1 1 1 1 1 
1 1 1 1 1 1 1 1 1 
1 1 1 1 1 1 1 1 1 
1 1 1 1 1 1 1 1 1 
1 1 1 1 1 1 1 1 1 
1 1 1 1 1 1 1 1 1 
1 1 1 1 1 1 1 1 1 
1 1 1 1 1 1 1 1 1 
1 1 1 1 1 1 1 1 1 
1 1 1 1 1 1 1 1 1 
1 1 1 1 1 1 1 1 1 
1 1 1 1 1 1 1 1 1 
1 1 1 1 1 1 1 1 1 
1 1 1 1 1 1 1 1 1 
1 1 1 1 1 1 1 1 1 
1 1 1 1 1 1 1 1 1 
1 1 1 1 1 1 1 1 1 
1 1 1 1 1 1 1 1 1 
1 1 1 1 1 1 1 1 1 
1 1 1 1 1 1 1 1 1 
1 1 1 1 1 1 1 1 1 
1 1 1 1 1 1 1 1 1 
1 1 1 1 1 1 1 1 1 
1 1 1 1 1 1 1 1 1 
1 1 1 1 1 1 1 1 1 
1 1 1 1 1 1 1 1 1 
1 1 1 1 1 1 1 1 1 
1 1 1 1 1 1 1 1 1 
1 1 1 1 1 1 1 1 1 
1 1 1 1 1 1 1 1 1 
1 1 1 1 1 1 1 1 1 
1 1 1 1 1 1 1 1 1 
1 1 1 1 1 1 1 1 1 
1 1 1 1 1 1 1 1 1 
1 1 1 1 1 1 1 1 1 
1 1 1 1 1 1 1 1 1 
1 1 1 1 1 1 1 1 1 
1 1 1 1 1 1 1 1 1 
1 1 1 1 1 1 1 1 1 
1 1 1 1 1 1 1 1 1 
1 1 1 1 1 1 1 1 1 
1 1 1 1 1 1 1 1 1 
1 1 1 1 1 1 1 1 1 
1 1 1 1 1 1 1 1 1 
1 1 1 1 1 1 1 1 1 
1 1 1 1 1 1 1 1 1 
1 1 1 1 1 1 1 1 1 
1 1 1 1 1 1 1 1 1 
1 1 1 1 1 1 1 1 1 
1 1 1 1 1 1 1 1 1 
1 1 1 1 1 1 1 1 1 
1 1 1 1 1 1 1 1 1 
1 1 1 1 1 1 1 1 1 
1 1 1 1 1 1 1 1 1 
1 1 1 1 1 1 1 1 1 
1 1 1 1 1 1 1 1 1 
1 1 1 1 1 1 1 1 1 
1 1 1 1 1 1 1 1 1 
1 1 1 1 1 1 1 1 1 
1 1 1 1 1 1 1 1 1 
1 1 1 1 1 1 1 1 1 
1 1 1 1 1 1 1 1 1 
1 1 1 1 1 1 1 1 1 
1 1 1 1 1 1 1 1 1 
1 1 1 1 1 1 1 1 1 
1 1 1 1 1 1 1 1 1 
1 1 1 1 1 1 1 1 1 
1 1 1 1 1 1 1 1 1 
1 1 1 1 1 1 1 1 1 
1 1 1 1 1 1 1 
NORMALS normals float
0 -0.0138875 -0.999904 0 -0.999904 -0.0138875 -0.571967 -0.580023 -0.580023 
0.70211 -0.00988888 -0.711999 -0.0138875 0 -0.999904 -0.00988888 -0.70211 -0.711999 
-0.707107 0 -0.707107 0 0 -1 0 -0.702145 -0.712034 
0 0 -1 -0.57464 -0.57464 -0.582733 0.0138862 0.0138862 -0.999807 
0.707073 0.00982045 -0.707073 -0.00988888 0.70211 -0.711999 0 0.702145 -0.712034 
0 0.702145 -0.712034 0.00982045 0.707073 -0.707073 -0.0138875 0 -0.999904 
-0.00988888 -0.70211 -0.711999 -0.707107 0 -0.707107 0 0 -1 
0 -0.702145 -0.712034 0 0 -1 0 -0.702145 -0.712034 
0 0 -1 0 -0.702145 -0.712034 0 0 -1 
0 -0.702145 -0.712034 0.0138875 0 -0.999904 0.00988888 -0.70211 -0.711999 
0.707107 0 -0.707107 -0.00988888 0.70211 -0.711999 0 0.702145 -0.712034 
0 0.702145 -0.712034 0 0.702145 -0.712034 0 0.702145 -0.712034 
0.00988888 0.70211 -0.711999 -0.00982045 -0.707073 -0.707073 -0.0138862 -0.999807 -0.0138862 
-0.57735 -0.57735 -0.57735 0 -0.707107 -0.707107 0 -0.999904 -0.0138875 
-0.571967 -0.580023 -0.580023 0 -0.999904 -0.0138875 0 -1 0 
0.70211 -0.00988888 -0.711999 0 -0.999904 -0.0138875 0 -0.0138875 -0.999904 
0 -0.999904 -0.0138875 0 -0.0138875 -0.999904 0 -0.999904 -0.0138875 
0.0138862 -0.0138862 -0.999807 0.0138862 -0.999807 -0.0138862 0.999807 -0.0138862 -0.0138862 
-0.707107 0 -0.707107 -0.580023 -0.571967 -0.580023 -0.707107 0 -0.707107 
0.702145 0 -0.712034 0 0 -1 0 0 -1 
0.0138875 0 -0.999904 0.999904 0 -0.0138875 -0.580023 0.571967 -0.580023 
-0.00988888 0.70211 -0.711999 -0.580023 0.571967 -0.580023 0 0.702145 -0.712034 
0 0.702145 -0.712034 0 0.702145 -0.712034 0 0 -1 
0 0 -1 0 0 -1 0.0138875 0 -0.999904 
0.999904 0 -0.0138875 -0.0138875 0 -0.999904 -0.707107 0 -0.707107 
0 0 -1 0 0 -1 0 0 -1 
0 0 -1 0 0 -1 0 0 -1 
0.0138875 0 -0.999904 0.711999 -0.70211 -0.00988888 -0.0138875 0 -0.999904 
-0.707107 0 -0.707107 0 0 -1 0 -0.702145 -0.712034 
0 -0.702145 -0.712034 0 -0.702145 -0.712034 0 -0.702145 -0.712034 
0 -0.702145 -0.712034 0 -0.702145 -0.712034 0.70211 -0.711999 -0.00988888 
0 -0.0138875 -0.999904 0.0140831 0 -0.999901 0.0140831 -0.999901 0 
1 0 0 -0.0138862 0.0138862 -0.999807 -0.999807 0.0138862 -0.0138862 
-0.70211 0.00988888 -0.711999 0.711999 0.00988888 -0.70211 0.707107 0.707107 0 
0.712034 0.702145 0 -0.0138862 0.999807 -0.0138862 -0.571967 0.580023 -0.580023 
-0.00988888 0.70211 -0.711999 -0.580023 0.571967 -0.580023 0 0.702145 -0.712034 
0 0.702145 -0.712034 0 0.702145 -0.712034 0 0.702145 -0.712034 
0.00982045 0.707073 -0.707073 0.707073 0.707073 -0.00982045 0.707107 0.707107 0 
-0.0138862 0.0138862 -0.999807 -0.707073 0.00982045 -0.707073 0 0.0138875 -0.999904 
0 0.0138875 -0.999904 0 0.0138875 -0.999904 0.0138862 0.0138862 -0.999807 
0.57735 0.57735 -0.57735 0.57735 0.57735 -0.57735 -0.0138862 0.999807 -0.0138862 
0 0.999904 -0.0138875 0 0.999904 -0.0138875 0 0.707107 -0.707107 
0.0138862 0.999807 -0.0138862 -0.57735 -0.57735 -0.57735 -0.0138862 -0.999807 -0.0138862 
-0.57735 -0.57735 -0.57735 0 -1 0 0 -1 0 
0 -1 0 0 -1 0 0 -1 0 
0 -1 0 0 -1 0 0.0138875 -0.999904 0 
0.999904 -0.0138875 0 -0.707107 0 -0.707107 -0.580023 -0.571967 -0.580023 
-0.999904 0 -0.0138875 1 0 0 -0.580023 0.571967 -0.580023 
-0.580023 0.571967 -0.580023 -0.580023 0.571967 -0.580023 1 0 0 
-0.707107 0 -0.707107 -0.707107 0 -0.707107 0.712034 -0.702145 0 
-0.707073 0.00982045 -0.707073 -0.707073 0.00982045 -0.707073 0.711999 -0.70211 0.00988888 
0.712034 0 0.702145 0.707107 0 0.707107 -0.57735 0.57735 -0.57735 
-0.580023 0.580023 -0.571967 0.580023 0.580023 0.571967 0.582733 0.57464 0.57464 
0.580023 0.571967 0.580023 -0.580023 0.580023 -0.571967 -0.580023 0.571967 -0.580023 
-0.580023 0.571967 -0.580023 1 0 0 -0.707073 0.00982045 -0.707073 
-0.707073 0.00982045 -0.707073 0.57735 0.57735 -0.57735 0.999807 0.0138862 -0.0138862 
-0.0138862 0.999807 -0.0138862 0 0.712034 -0.702145 0 0.712034 -0.702145 
-0.57464 0.582733 -0.57464 0 0.702145 -0.712034 -0.57464 0.57464 -0.582733 
0.57464 0.57464 -0.582733 0.57464 0.582733 -0.57464 0.00982045 0.707073 -0.707073 
0 0.0138875 -0.999904 -0.70211 0.00988888 -0.711999 0.70211 0.00988888 -0.711999 
0 0.999904 -0.0138875 -0.57735 -0.57735 -0.57735 -0.0138862 -0.999807 -0.0138862 
-0.999807 -0.0138862 -0.0138862 0 -1 0 0 -1 0 
0 -1 0 0 -1 0 0 -1 0 
0 -1 0 0 -1 0 0 -1 0 
0.0138862 -0.999807 0.0138862 0.999807 -0.0138862 0.0138862 -1 0 0 
0.999904 0 0.0138875 -0.580023 0.571967 -0.580023 -0.999904 0 -0.0138875 
0.999904 0 0.0138875 -0.707107 0 -0.707107 -0.999904 0 -0.0138875 
0.999904 0 0.0138875 -0.707107 0 -0.707107 -0.999904 0 -0.0138875 
0.707107 0 0.707107 0.707107 0 0.707107 -0.0138862 0.0138862 -0.999807 
-0.999807 0.0138862 -0.0138862 -0.571967 0.580023 -0.580023 0.999904 0 0.0138875 
-0.0138862 0.999807 -0.0138862 -0.70211 0.711999 -0.00988888 -0.580023 0.571967 -0.580023 
-0.711999 0.70211 -0.00988888 1 0 0 -0.707073 0.00982045 -0.707073 
-0.999807 0.0138862 -0.0138862 0.712034 -0.702145 0 -0.0138862 0.999807 -0.0138862 
-0.57464 0.582733 -0.57464 -0.00988888 0.70211 -0.711999 -0.580023 0.571967 -0.580023 
0 0.702145 -0.712034 -0.57464 0.57464 -0.582733 0.57464 0.57464 -0.582733 
0 0.702145 -0.712034 0.70211 -0.711999 -0.00988888 0 -0.0138875 -0.999904 
0.0138862 -0.0138862 -0.999807 0.0138862 -0.999807 -0.0138862 0.999807 -0.0138862 -0.0138862 
-0.0138862 0.0138862 -0.999807 -0.999807 0.0138862 -0.0138862 0 0.0138875 -0.999904 
-0.70211 0.00988888 -0.711999 0.702145 0 -0.712034 0 0 -1 
0 0 -1 0.0138875 0 -0.999904 0.999904 0 -0.0138875 
-0.0138862 0.999807 -0.0138862 0 0.707107 -0.707107 0 0.999904 -0.0138875 
-0.57464 0.582733 -0.57464 -0.0138875 0 -0.999904 -0.580023 0.571967 -0.580023 
0 0 -1 0 0 -1 0.0138862 0.0138862 -0.999807 
0.999807 0.0138862 -0.0138862 -0.0138862 0.0138862 -0.999807 -0.707073 0.00982045 -0.707073 
0 0.0138875 -0.999904 0.0138862 0.0138862 -0.999807 0.57735 0.57735 -0.57735 
0.57735 0.57735 -0.57735 -0.0138862 0.999807 -0.0138862 0 0.999904 -0.0138875 
0.0138862 0.999807 -0.0138862 -0.0138875 -0.999904 0 -0.999904 -0.0138875 0 
0 -1 0 0 -1 0 0 -1 0 
0 -1 0 0 -1 0 0 -1 0 
0 -1 0 0.0138862 -0.999807 0.0138862 0.707073 -0.00982045 0.707073 
0.707073 -0.00982045 0.707073 -1 0 0 0.707107 0 0.707107 
0.707107 0 0.707107 -1 0 0 0.707107 0 0.707107 
0.707107 0 0.707107 -1 0 0 0.707107 0 0.707107 
0.707107 0 0.707107 -1 0 0 0.707107 0 0.707107 
0.707107 0 0.707107 -0.999904 0.0138875 0 0.580023 -0.571967 0.580023 
0.580023 -0.571967 0.580023 -0.0138875 0.999904 0 -0.702145 0.712034 0 
-0.712034 0.702145 0 0.580023 -0.580023 0.571967 0.999904 -0.0138875 0 
-0.999904 0.0138875 0 0.712034 -0.702145 0 -0.580023 0.580023 -0.571967 
-0.57735 0.57735 -0.57735 -0.57735 0.57735 -0.57735 0.702145 -0.712034 0 
0.0138875 -0.999904 0 0.999904 -0.0138875 0 -0.57735 0.57735 -0.57735 
-0.580023 0.580023 -0.571967 1 0 0 -0.580023 0.580023 -0.571967 
0 0.702145 -0.712034 -0.57464 0.57464 -0.582733 0 0.702145 -0.712034 
0 0.712034 -0.702145 -0.580023 0.571967 -0.580023 -0.00988888 0.70211 -0.711999 
1 0 0 0 0 -1 -0.702145 0 -0.712034 
0 0 -1 -0.707073 0.00982045 -0.707073 -0.0138862 0.0138862 -0.999807 
0.57735 0.57735 -0.57735 0.999807 0.0138862 -0.0138862 0 0.0138875 -0.999904 
-0.70211 0.00988888 -0.711999 0.70211 0.00988888 -0.711999 -0.00982045 0.707073 -0.707073 
0 0.712034 -0.702145 0 0.712034 -0.702145 0 0.712034 -0.702145 
0.00982045 0.707073 -0.707073 0 0.707107 -0.707107 -0.00988888 -0.711999 -0.70211 
-0.711999 -0.00988888 -0.70211 0 -0.712034 -0.702145 0 -0.712034 -0.702145 
0 -0.712034 -0.702145 0 -1 0 0 -1 0 
0 -1 0 0.0138862 -0.999807 0.0138862 0.707073 -0.00982045 0.707073 
0.707073 -0.00982045 0.707073 -0.712034 0 -0.702145 0.707107 0 0.707107 
0.712034 0 0.702145 -0.712034 0 -0.702145 0.707107 0 0.707107 
0.712034 0 0.702145 -0.712034 0 -0.702145 0.707107 0 0.707107 
0.712034 0 0.702145 -1 0 0 0.707107 0 0.707107 
0.712034 0 0.702145 -0.999904 0.0138875 0 0.580023 -0.571967 0.580023 
0.582733 -0.57464 0.57464 -0.0138875 0.999904 0 -0.57464 0.582733 -0.57464 
-0.582733 0.57464 -0.57464 0.57464 -0.582733 0.57464 0.0138875 -0.999904 0 
0.999904 -0.0138875 0 -0.712034 0 -0.702145 0.712034 -0.702145 0 
-0.580023 0.571967 -0.580023 -0.999904 0 -0.0138875 0.702145 -0.712034 0 
0.0138875 -0.999904 0 0.999904 -0.0138875 0 -0.0138862 0.0138862 -0.999807 
-0.999807 0.0138862 -0.0138862 -0.571967 0.580023 -0.580023 1 0 0 
-0.0138862 0.999807 -0.0138862 -0.571967 0.580023 -0.580023 -0.580023 0.571967 -0.580023 
-0.580023 0.571967 -0.580023 0 0.702145 -0.712034 1 0 0 
-0.707107 0 -0.707107 -0.707107 0 -0.707107 0 0 -1 
0.712034 -0.702145 0 -0.707107 0 -0.707107 -0.707107 0 -0.707107 
0.702145 0 -0.712034 0 0.702145 -0.712034 0 0.702145 -0.712034 
0 0.702145 -0.712034 0 0.702145 -0.712034 0 0.702145 -0.712034 
0.70211 -0.711999 -0.00988888 0 -0.0138875 -0.999904 0.0138862 -0.0138862 -0.999807 
0.0138862 -0.999807 -0.0138862 0.999807 -0.0138862 -0.0138862 -0.0138862 0.0138862 -0.999807 
-0.999807 0.0138862 -0.0138862 0 0.707107 -0.707107 0 0 -1 
0 0 -1 0 0 -1 0 0 -1 
0 0 -1 0 0 -1 0 0 -1 
0.0138875 0 -0.999904 0.999904 0 -0.0138875 -0.0138862 0.999807 -0.0138862 
-0.70211 0.711999 -0.00988888 -0.711999 0.70211 -0.00988888 -0.0138875 0 -0.999904 
0 0 -1 0 0 -1 0 0 -1 
0 0 -1 0 0 -1 0 0 -1 
0.0138875 0 -0.999904 0.999904 0 -0.0138875 -0.0138862 0.0138862 -0.999807 
-0.999807 0.0138862 -0.0138862 0 0.0138875 -0.999904 0 0 -1 
0 0 -1 0 0 -1 0 0 -1 
0 0 -1 0.0138875 0 -0.999904 0.999904 0 -0.0138875 
-0.0138862 0.999807 -0.0138862 -0.70211 0.711999 -0.00988888 -0.711999 0.70211 -0.00988888 
-0.0138875 0 -0.999904 0 0 -1 0 0 -1 
0 0 -1 0 0 -1 0.0138862 0.0138862 -0.999807 
0.999807 0.0138862 -0.0138862 -0.0138862 0.0138862 -0.999807 -0.999807 0.0138862 -0.0138862 
0 0.0138875 -0.999904 0 0.0138875 -0.999904 0 0.0138875 -0.999904 
0.0138862 0.0138862 -0.999807 0.57735 0.57735 -0.57735 0.57735 0.57735 -0.57735 
-0.0138862 0.999807 -0.0138862 0 0.999904 -0.0138875 0 0.999904 -0.0138875 
0 0.999904 -0.0138875 0.0138862 0.999807 -0.0138862 -0.0138875 0 -0.999904 
-0.00988888 -0.70211 -0.711999 -0.707107 0 -0.707107 0 -0.0138875 -0.999904 
0 -0.707107 -0.707107 0 -0.707107 -0.707107 0 -0.707107 -0.707107 
0 -0.707107 -0.707107 0 -0.707107 -0.707107 0 -0.707107 -0.707107 
0 -0.707107 -0.707107 0.00982045 -0.707073 -0.707073 0.00982045 -0.707073 -0.707073 
0.707073 -0.707073 -0.00982045 -0.580023 0.571967 -0.580023 -0.580023 0.571967 -0.580023 
-0.707107 0 -0.707107 0.702145 -0.712034 0 0 -1 0 
0.0138862 -0.999807 0.0138862 0.57735 -0.57735 0.57735 0.57735 -0.57735 0.57735 
-0.707107 0 -0.707107 -0.707107 0 -0.707107 0.57735 -0.57735 0.57735 
0.999807 -0.0138862 0.0138862 -0.707107 0 -0.707107 -0.707107 0 -0.707107 