# vtk DataFile Version 3.0
vtk output
ASCII
DATASET POLYDATA
POINTS 6614 float
75 33 72.0204 75 32.0204 73 74.0204 33 73 
76 33 72.0204 76 32.0204 73 77 33 72.0204 
77 32.0204 73 78 33 72.0204 78 32.0204 73 
78.9796 33 73 72 34 72.0204 72 33.0204 73 
71.0204 34 73 72.9796 34 73 75 33.9796 73 
76 33.9796 73 77 33.9796 73 78 33.9796 73 
71 35 72.0204 71 34.0204 73 70.0204 35 73 
72 35 72.0204 72.9796 35 73 71 35.9796 73 
72 35.9796 73 79 30 73.0204 79 29.0204 74 
78.0204 30 74 80 30 73.0204 80 29.0204 74 
80.9796 30 74 78 31 73.0204 78 30.0204 74 
77.0204 31 74 79 31 73.0204 80 31 73.0204 
80.9796 31 74 75 32 73.0204 75 31.0204 74 
74.0204 32 74 76 32 73.0204 76 31.0204 74 
77 32 73.0204 77 31.0204 74 78 32 73.0204 
79 32 73.0204 80 32 73.0204 80.9796 32 74 
74 33 73.0204 74 32.0204 74 73.0204 33 74 
79 33 73.0204 79.9796 33 74 80 32.9796 74 
71 34 73.0204 71 33.0204 74 70.0204 34 74 
72 33.0204 74 73 34 73.0204 73 33.0204 74 
74 34 73.0204 75 34 73.0204 76 34 73.0204 
77 34 73.0204 78 34 73.0204 78.9796 34 74 
79 33.9796 74 70 35 73.0204 70 34.0204 74 
69.0204 35 74 73 35 73.0204 74 35 73.0204 
75 35 73.0204 76 35 73.0204 77 35 73.0204 
78 35 73.0204 78.9796 35 74 70 35.9796 74 
71 36 73.0204 70.0204 36 74 72 36 73.0204 
73 36 73.0204 74 36 73.0204 75 36 73.0204 
76 36 73.0204 77 36 73.0204 78 36 73.0204 
78.9796 36 74 71 37 73.0204 70.0204 37 74 
72 37 73.0204 73 37 73.0204 74 37 73.0204 
75 37 73.0204 76 37 73.0204 77 37 73.0204 
77.9796 37 74 78 36.9796 74 71 37.9796 74 
72 37.9796 74 73 37.9796 74 74 37.9796 74 
75 37.9796 74 76 37.9796 74 77 37.9796 74 
82 22 74.0204 82 21.0204 75 81.0204 22 75 
82.9796 22 75 82 23 74.0204 81.0204 23 75 
82.9796 23 75 82 24 74.0204 81.0204 24 75 
82.9796 24 75 81 25 74.0204 81 24.0204 75 
80.0204 25 75 82 24.9796 75 81.9796 25 75 
80 26 74.0204 80 25.0204 75 79.0204 26 75 
81 25.9796 75 80.9796 26 75 80 27 74.0204 
79.0204 27 75 80.9796 27 75 80 28 74.0204 
79.0204 28 75 80.9796 28 75 78 29 74.0204 
78 28.0204 75 77.0204 29 75 79 29 74.0204 
79 28.0204 75 80 29 74.0204 80.9796 29 75 
78 30 74.0204 77.0204 30 75 80.9796 30 75 
75 31 74.0204 75 30.0204 75 74.0204 31 75 
76 31 74.0204 76 30.0204 75 77 31 74.0204 
77 30.0204 75 80.9796 31 75 74.0204 32 75 
80.9796 32 75 74 32.0204 75 73.0204 33 75 
79.9796 33 75 80 32.9796 75 71 33.0204 75 
70.0204 34 75 72 33.0204 75 73 33.0204 75 
78.9796 34 75 79 33.9796 75 70 35 74.9796 
70.0204 35 75 78.9796 35 75 70 35.0204 75 
69.0204 36 75 70 36 74.0204 78.9796 36 75 
70 36.9796 75 70.0204 37 75 77.9796 37 75 
78 36.9796 75 71 37.9796 75 72 37.9796 75 
73 37.9796 75 74 37.9796 75 75 37.9796 75 
76 37.9796 75 77 37.9796 75 81 22 75.0204 
81 21.0204 76 80.0204 22 76 82 21.0204 76 
83 22 75.0204 83 21.0204 76 84 22 75.0204 
84 21.0204 76 84.9796 22 76 81 23 75.0204 
80.0204 23 76 83 23 75.0204 84 23 75.0204 
84.9796 23 76 81 24 75.0204 80.0204 24 76 
83 24 75.0204 84 24 75.0204 84.9796 24 76 
80 25 75.0204 80 24.0204 76 79.0204 25 76 
82 25 75.0204 83 25 75.0204 83.9796 25 76 
84 24.9796 76 79 26 75.0204 79 25.0204 76 
78.0204 26 76 81 26 75.0204 82 26 75.0204 
82.9796 26 76 83 25.9796 76 78 27 75.0204 
78 26.0204 76 77.0204 27 76 79 27 75.0204 
81 27 75.0204 82 27 75.0204 82.9796 27 76 
77 28 75.0204 77 27.0204 76 76.0204 28 76 
78 28 75.0204 79 28 75.0204 81 28 75.0204 
82 28 75.0204 82.9796 28 76 76 29 75.0204 
76 28.0204 76 75.0204 29 76 77 29 75.0204 
81 29 75.0204 81.9796 29 76 82 28.9796 76 
75 30 75.0204 75 29.0204 76 74.0204 30 76 
76 30 75.0204 77 30 75.0204 80.9796 30 76 
81 29.9796 76 74.0204 31 76 80.9796 31 76 
74.0204 32 76 80.9796 32 76 74 32.0204 76 
73.0204 33 76 79.9796 33 76 80 32.9796 76 
71 34 75.9796 72 34 75.9796 72.0204 34 76 
73 33.0204 76 78.9796 34 76 79 33.9796 76 
71 35 75.9796 71.0204 35 76 72 34.0204 76 
78.9796 35 76 70 36 75.9796 70.0204 36 76 
71 35.0204 76 78.9796 36 76 70 36.0204 76 
69.0204 37 76 70 37 75.0204 77.9796 37 76 
78 36.9796 76 70 37.9796 76 71 38 75.0204 
70.0204 38 76 72 38 75.0204 73 38 75.0204 
74 38 75.0204 75 38 75.0204 76 38 75.0204 
76.9796 38 76 77 37.9796 76 71 39 75.0204 
70.0204 39 76 72 39 75.0204 73 39 75.0204 
74 39 75.0204 75 39 75.0204 76 39 75.0204 
76.9796 39 76 71 40 75.0204 70.0204 40 76 
72 40 75.0204 73 40 75.0204 74 40 75.0204 
75 40 75.0204 76 40 75.0204 76.9796 40 76 
71 41 75.0204 70.0204 41 76 72 41 75.0204 
73 41 75.0204 74 41 75.0204 75 41 75.0204 
75.9796 41 76 76 40.9796 76 71 41.9796 76 
72 41.9796 76 72.0204 42 76 73 42 75.0204 
74 42 75.0204 74.9796 42 76 75 41.9796 76 
73 43 75.0204 72.0204 43 76 73.9796 43 76 
74 42.9796 76 73 43.9796 76 81 21.0204 77 
80.0204 22 77 82 21.0204 77 83 21.0204 77 
84 21.0204 77 84.9796 22 77 80 23 76.0204 
80 22.0204 77 79.0204 23 77 84.9796 23 77 
80 24 76.0204 79.0204 24 77 84.9796 24 77 
79 25 76.0204 79 24.0204 77 78.0204 25 77 
83.9796 25 77 84 24.9796 77 78.0204 26 77 
82.9796 26 77 83 25.9796 77 78 26.0204 77 
77.0204 27 77 82.9796 27 77 77 27.0204 77 
76.0204 28 77 82.9796 28 77 76 28.0204 77 
75.0204 29 77 81.9796 29 77 82 28.9796 77 
75 29.0204 77 74.0204 30 77 80.9796 30 77 
81 29.9796 77 74.0204 31 77 80.9796 31 77 
74.0204 32 77 80.9796 32 77 74 32.0204 77 
73.0204 33 77 79.9796 33 77 80 32.9796 77 
73 33.0204 77 72.0204 34 77 78.9796 34 77 
79 33.9796 77 72 34.0204 77 71.0204 35 77 
78.9796 35 77 71 35.0204 77 70.0204 36 77 
78.9796 36 77 70 37 76.9796 70.0204 37 77 
77.9796 37 77 78 36.9796 77 70 37.0204 77 
69.0204 38 77 70 38 76.0204 76.9796 38 77 
77 37.9796 77 70 39 76.0204 69.0204 39 77 
76.9796 39 77 70 39.9796 77 70.0204 40 77 
76.9796 40 77 70.0204 41 77 75.9796 41 77 
76 40.9796 77 71 41.9796 77 72 41.9796 77 
72.0204 42 77 74.9796 42 77 75 41.9796 77 
72.0204 43 77 73.9796 43 77 74 42.9796 77 
73 43.9796 77 81 21.0204 78 80.0204 22 78 
82 21.0204 78 83 21.0204 78 84 21.0204 78 
85 22 77.0204 85 21.0204 78 86 22 77.0204 
86 21.0204 78 86.9796 22 78 80 22.0204 78 
79.0204 23 78 85 23 77.0204 85.9796 23 78 
86 22.9796 78 79 24 77.0204 79 23.0204 78 
78.0204 24 78 84.9796 24 78 85 23.9796 78 
78.0204 25 78 84 25 77.0204 84.9796 25 78 
78.0204 26 78 83 26 77.0204 84 26 77.0204 
84.9796 26 78 78 26.0204 78 77.0204 27 78 
83 27 77.0204 83.9796 27 78 84 26.9796 78 
77 27.0204 78 76.0204 28 78 82.9796 28 78 
83 27.9796 78 76 28.0204 78 75.0204 29 78 
82 29 77.0204 82.9796 29 78 75 29.0204 78 
74.0204 30 78 81 30 77.0204 82 30 77.0204 
82.9796 30 78 74.0204 31 78 81 31 77.0204 
81.9796 31 78 82 30.9796 78 74.0204 32 78 
80.9796 32 78 81 31.9796 78 74 32.0204 78 
73.0204 33 78 80 33 77.0204 80.9796 33 78 
73 33.0204 78 72.0204 34 78 79 34 77.0204 
80 34 77.0204 80.9796 34 78 72 35 77.9796 
72.0204 35 78 79 35 77.0204 79.9796 35 78 
80 34.9796 78 71 36 77.9796 72 36 77.9796 
72.0204 36 78 78.9796 36 78 79 35.9796 78 
71 37 77.9796 71.0204 37 78 72 36.0204 78 
77.9796 37 78 78 36.9796 78 70 38 77.9796 
70.0204 38 78 71 37.0204 78 76.9796 38 78 
77 37.9796 78 70 38.0204 78 69.0204 39 78 
76.9796 39 78 70 39.9796 78 70.0204 40 78 
76.9796 40 78 70.0204 41 78 75.9796 41 78 
76 40.9796 78 71 41.9796 78 72 41.9796 78 
72.0204 42 78 74.9796 42 78 75 41.9796 78 
72.0204 43 78 73.9796 43 78 74 42.9796 78 
73 43.9796 78 80 22 78.0204 80 21.0204 79 
79.0204 22 79 81 21.0204 79 82 21.0204 79 
83 21.0204 79 84 21.0204 79 85 21.0204 79 
86 21.0204 79 86.9796 22 79 79 23 78.0204 
79 22.0204 79 78.0204 23 79 86 23 78.0204 
86.9796 23 79 78.0204 24 79 84.9796 24 79 
85 23.9796 79 86 23.9796 79 78 25 78.0204 
78 24.0204 79 77.0204 25 79 84.9796 25 79 
78 26 78.0204 77.0204 26 79 84.9796 26 79 
77 27 78.0204 77 26.0204 79 76.0204 27 79 
83.9796 27 79 84 26.9796 79 76.0204 28 79 
82.9796 28 79 83 27.9796 79 76 28.0204 79 
75.0204 29 79 82.9796 29 79 75 29.0204 79 
74.0204 30 79 82.9796 30 79 74 31 78.0204 
74 30.0204 79 73.0204 31 79 81.9796 31 79 
82 30.9796 79 74 32 78.0204 73.0204 32 79 
80.9796 32 79 81 31.9796 79 73 33 78.0204 
73 32.0204 79 72.0204 33 79 80.9796 33 79 
72.0204 34 79 80.9796 34 79 72.0204 35 79 
79.9796 35 79 80 34.9796 79 72.0204 36 79 
78.9796 36 79 79 35.9796 79 72 36.0204 79 
71.0204 37 79 78 37 78.0204 78.9796 37 79 
71 37.0204 79 70.0204 38 79 76.9796 38 79 
77 37.9796 79 78 37.9796 79 70 38.0204 79 
69.0204 39 79 76.9796 39 79 70 39.9796 79 
70.0204 40 79 76.9796 40 79 70.0204 41 79 
75.9796 41 79 76 40.9796 79 71 41.9796 79 
72 41.9796 79 72.0204 42 79 74.9796 42 79 
75 41.9796 79 72.0204 43 79 73.9796 43 79 
74 42.9796 79 73 43.9796 79 79 22 79.0204 
79 21.0204 80 78.0204 22 80 80 21.0204 80 
81 21.0204 80 82 21.0204 80 83 21.0204 80 
84 21.0204 80 85 21.0204 80 86 21.0204 80 
87 22 79.0204 87 21.0204 80 88 22 79.0204 
88 21.0204 80 88.9796 22 80 78.0204 23 80 
87 23 79.0204 87.9796 23 80 88 22.9796 80 
78.0204 24 80 85 24 79.0204 86 24 79.0204 
86.9796 24 80 87 23.9796 80 78 24.0204 80 
77.0204 25 80 85 25 79.0204 85.9796 25 80 
86 24.9796 80 77 26 79.0204 77 25.0204 80 
76.0204 26 80 84.9796 26 80 85 25.9796 80 
76.0204 27 80 84 27 79.0204 84.9796 27 80 
76.0204 28 80 83 28 79.0204 84 28 79.0204 
84.9796 28 80 76 28.0204 80 75.0204 29 80 
83 29 79.0204 83.9796 29 80 84 28.9796 80 
75 29.0204 80 74.0204 30 80 82.9796 30 80 
83 29.9796 80 74 30.0204 80 73.0204 31 80 
82 31 79.0204 82.9796 31 80 73 32 79.0204 
73 31.0204 80 72.0204 32 80 81 32 79.0204 
82 32 79.0204 82.9796 32 80 72.0204 33 80 
81 33 79.0204 81.9796 33 80 82 32.9796 80 
72.0204 34 80 80.9796 34 80 81 33.9796 80 
72.0204 35 80 80 35 79.0204 80.9796 35 80 
72.0204 36 80 79 36 79.0204 80 36 79.0204 
80.9796 36 80 72 36.0204 80 71.0204 37 80 
79 37 79.0204 79.9796 37 80 80 36.9796 80 
71 37.0204 80 70.0204 38 80 77 38 79.0204 
78 38 79.0204 78.9796 38 80 79 37.9796 80 
70 38.0204 80 69.0204 39 80 77 39 79.0204 
77.9796 39 80 78 38.9796 80 70 39.9796 80 
70.0204 40 80 76.9796 40 80 77 39.9796 80 
70.0204 41 80 75.9796 41 80 76 40.9796 80 
71 41.9796 80 72 41.9796 80 72.0204 42 80 
74.9796 42 80 75 41.9796 80 72.0204 43 80 
73.9796 43 80 74 42.9796 80 73 43.9796 80 
78 22 80.0204 78 21.0204 81 77.0204 22 81 
[...]
POINT_DATA 6614
SCALARS scalars float
LOOKUP_TABLE default
1 1 1 1 1 1 1 1 1 
1 1 1 1 1 1 1 1 1 
1 1 1 1 1 1 1 1 1 
1 1 1 1 1 1 1 1 1 
1 1 1 1 1 1 1 1 1 
1 1 1 1 1 1 1 1 1 
1 1 1 1 1 1 1 1 1 
1 1 1 1 1 1 1 1 1 
1 1 1 1 1 1 1 1 1 
1 1 1 1 1 1 1 1 1 
1 1 1 1 1 1 1 1 1 
1 1 1 1 1 1 1 1 1 
1 1 1 1 1 1 1 1 1 
1 1 1 1 1 1 1 1 1 
1 1 1 1 1 1 1 1 1 
1 1 1 1 1 1 1 1 1 
1 1 1 1 1 1 1 1 1 
1 1 1 1 1 1 1 1 1 
1 1 1 1 1 1 1 1 1 
1 1 1 1 1 1 1 1 1 
1 1 1 1 1 1 1 1 1 
1 1 1 1 1 1 1 1 1 
1 1 1 1 1 1 1 1 1 
1 1 1 1 1 1 1 1 1 
1 1 1 1 1 1 1 1 1 
1 1 1 1 1 1 1 1 1 
1 1 1 1 1 1 1 1 1 
1 1 1 1 1 1 1 1 1 
1 1 1 1 1 1 1 1 1 
1 1 1 1 1 1 1 1 1 
1 1 1 1 1 1 1 1 1 
1 1 1 1 1 1 1 1 1 
1 1 1 1 1 1 1 1 1 
1 1 1 1 1 1 1 1 1 
1 1 1 1 1 1 1 1 1 
1 1 1 1 1 1 1 1 1 
1 1 1 1 1 1 1 1 1 
1 1 1 1 1 1 1 1 1 
1 1 1 1 1 1 1 1 1 
1 1 1 1 1 1 1 1 1 
1 1 1 1 1 1 1 1 1 
1 1 1 1 1 1 1 1 1 
1 1 1 1 1 1 1 1 1 
1 1 1 1 1 1 1 1 1 
1 1 1 1 1 1 1 1 1 
1 1 1 1 1 1 1 1 1 
1 1 1 1 1 1 1 1 1 
1 1 1 1 1 1 1 1 1 
1 1 1 1 1 1 1 1 1 
1 1 1 1 1 1 1 1 1 
1 1 1 1 1 1 1 1 1 
1 1 1 1 1 1 1 1 1 
1 1 1 1 1 1 1 1 1 
1 1 1 1 1 1 1 1 1 
1 1 1 1 1 1 1 1 1 
1 1 1 1 1 1 1 1 1 
1 1 1 1 1 1 1 1 1 
1 1 1 1 1 1 1 1 1 
1 1 1 1 1 1 1 1 1 
1 1 1 1 1 1 1 1 1 
1 1 1 1 1 1 1 1 1 
1 1 1 1 1 1 1 1 1 
1 1 1 1 1 1 1 1 1 
1 1 1 1 1 1 1 1 1 
1 1 1 1 1 1 1 1 1 
1 1 1 1 1 1 1 1 1 
1 1 1 1 1 1 1 1 1 
1 1 1 1 1 1 1 1 1 
1 1 1 1 1 1 1 1 1 
1 1 1 1 1 1 1 1 1 
1 1 1 1 1 1 1 1 1 
1 1 1 1 1 1 1 1 1 
1 1 1 1 1 1 1 1 1 
1 1 1 1 1 1 1 1 1 
1 1 1 1 1 1 1 1 1 
1 1 1 1 1 1 1 1 1 
1 1 1 1 1 1 1 1 1 
1 1 1 1 1 1 1 1 1 
1 1 1 1 1 1 1 1 1 
1 1 1 1 1 1 1 1 1 
1 1 1 1 1 1 1 1 1 
1 1 1 1 1 1 1 1 1 
1 1 1 1 1 1 1 1 1 
1 1 1 1 1 1 1 1 1 
1 1 1 1 1 1 1 1 1 
1 1 1 1 1 1 1 1 1 
1 1 1 1 1 1 1 1 1 
1 1 1 1 1 1 1 1 1 
1 1 1 1 1 1 1 1 1 
1 1 1 1 1 1 1 1 1 
1 1 1 1 1 1 1 1 1 
1 1 1 1 1 1 1 1 1 
1 1 1 1 1 1 1 1 1 
1 1 1 1 1 1 1 1 1 
1 1 1 1 1 1 1 1 1 
1 1 1 1 1 1 1 1 1 
1 1 1 1 1 1 1 1 1 
1 1 1 1 1 1 1 1 1 
1 1 1 1 1 1 1 1 1 
1 1 1 1 1 1 1 1 1 
1 1 1 1 1 1 1 1 1 
1 1 1 1 1 1 1 1 1 
1 1 1 1 1 1 1 1 1 
1 1 1 1 1 1 1 1 1 
1 1 1 1 1 1 1 1 1 
1 1 1 1 1 1 1 1 1 
1 1 1 1 1 1 1 1 1 
1 1 1 1 1 1 1 1 1 
1 1 1 1 1 1 1 1 1 
1 1 1 1 1 1 1 1 1 
1 1 1 1 1 1 1 1 1 
1 1 1 1 1 1 1 1 1 
1 1 1 1 1 1 1 1 1 
1 1 1 1 1 1 1 1 1 
1 1 1 1 1 1 1 1 1 
1 1 1 1 1 1 1 1 1 
1 1 1 1 1 1 1 1 1 
1 1 1 1 1 1 1 1 1 
1 1 1 1 1 1 1 1 1 
1 1 1 1 1 1 1 1 1 
1 1 1 1 1 1 1 1 1 
1 1 1 1 1 1 1 1 1 
1 1 1 1 1 1 1 1 1 
1 1 1 1 1 1 1 1 1 
1 1 1 1 1 1 1 1 1 
1 1 1 1 1 1 1 1 1 
1 1 1 1 1 1 1 1 1 
1 1 1 1 1 1 1 1 1 
1 1 1 1 1 1 1 1 1 
1 1 1 1 1 1 1 1 1 
1 1 1 1 1 1 1 1 1 
1 1 1 1 1 1 1 1 1 
1 1 1 1 1 1 1 1 1 
1 1 1 1 1 1 1 1 1 
1 1 1 1 1 1 1 1 1 
1 1 1 1 1 1 1 1 1 
1 1 1 1 1 1 1 1 1 
1 1 1 1 1 1 1 1 1 
1 1 1 1 1 1 1 1 1 
1 1 1 1 1 1 1 1 1 
1 1 1 1 1 1 1 1 1 
1 1 1 1 1 1 1 1 1 
1 1 1 1 1 1 1 1 1 
1 1 1 1 1 1 1 1 1 
1 1 1 1 1 1 1 1 1 
1 1 1 1 1 1 1 1 1 
1 1 1 1 1 1 1 1 1 
1 1 1 1 1 1 1 1 1 
1 1 1 1 1 1 1 1 1 
1 1 1 1 1 1 1 1 1 
1 1 1 1 1 1 1 1 1 
1 1 1 1 1 1 1 1 1 
1 1 1 1 1 1 1 1 1 
1 1 1 1 1 1 1 1 1 
1 1 1 1 1 1 1 1 1 
1 1 1 1 1 1 1 1 1 
1 1 1 1 1 1 1 1 1 
1 1 1 1 1 1 1 1 1 
1 1 1 1 1 1 1 1 1 
1 1 1 1 1 1 1 1 1 
1 1 1 1 1 1 1 1 1 
1 1 1 1 1 1 1 1 1 
1 1 1 1 1 1 1 1 1 
1 1 1 1 1 1 1 1 1 
1 1 1 1 1 1 1 1 1 
1 1 1 1 1 1 1 1 1 
1 1 1 1 1 1 1 1 1 
1 1 1 1 1 1 1 1 1 
1 1 1 1 1 1 1 1 1 
1 1 1 1 1 1 1 1 1 
1 1 1 1 1 1 1 1 1 
1 1 1 1 1 1 1 1 1 
1 1 1 1 1 1 1 1 1 
1 1 1 1 1 1 1 1 1 
1 1 1 1 1 1 1 1 1 
1 1 1 1 1 1 1 1 1 
1 1 1 1 1 1 1 1 1 
1 1 1 1 1 1 1 1 1 
1 1 1 1 1 1 1 1 1 
1 1 1 1 1 1 1 1 1 
1 1 1 1 1 1 1 1 1 
1 1 1 1 1 1 1 1 1 
1 1 1 1 1 1 1 1 1 
1 1 1 1 1 1 1 1 1 
1 1 1 1 1 1 1 1 1 
1 1 1 1 1 1 1 1 1 
1 1 1 1 1 1 1 1 1 
1 1 1 1 1 1 1 1 1 
1 1 1 1 1 1 1 1 1 
1 1 1 1 1 1 1 1 1 
1 1 1 1 1 1 1 1 1 
1 1 1 1 1 1 1 1 1 
1 1 1 1 1 1 1 1 1 
1 1 1 1 1 1 1 1 1 
1 1 1 1 1 1 1 1 1 
1 1 1 1 1 1 1 1 1 
1 1 1 1 1 1 1 1 1 
1 1 1 1 1 1 1 1 1 
1 1 1 1 1 1 1 1 1 
1 1 1 1 1 1 1 1 1 
1 1 1 1 1 1 1 1 1 
1 1 1 1 1 1 1 1 1 
1 1 1 1 1 1 1 1 1 
1 1 1 1 1 1 1 1 1 
1 1 1 1 1 1 1 1 1 
1 1 1 1 1 1 1 1 1 
1 1 1 1 1 1 1 1 1 
1 1 1 1 1 1 1 1 1 
1 1 1 1 1 1 1 1 1 
1 1 1 1 1 1 1 1 1 
1 1 1 1 1 1 1 1 1 
1 1 1 1 1 1 1 1 1 
1 1 1 1 1 1 1 1 1 
1 1 1 1 1 1 1 1 1 
1 1 1 1 1 1 1 1 1 
1 1 1 1 1 1 1 1 1 
1 1 1 1 1 1 1 1 1 
1 1 1 1 1 1 1 1 1 
1 1 1 1 1 1 1 1 1 
1 1 1 1 1 1 1 1 1 
1 1 1 1 1 1 1 1 1 
1 1 1 1 1 1 1 1 1 
1 1 1 1 1 1 1 1 1 
1 1 1 1 1 1 1 1 1 
1 1 1 1 1 1 1 1 1 
1 1 1 1 1 1 1 1 1 
1 1 1 1 1 1 1 1 1 
1 1 1 1 1 1 1 1 1 
1 1 1 1 1 1 1 1 1 
1 1 1 1 1 1 1 1 1 
1 1 1 1 1 1 1 1 1 
1 1 1 1 1 1 1 1 1 
1 1 1 1 1 1 1 1 1 
1 1 1 1 1 1 1 1 1 
1 1 1 1 1 1 1 1 1 
1 1 1 1 1 1 1 1 1 
1 1 1 1 1 1 1 1 1 
1 1 1 1 1 1 1 1 1 
1 1 1 1 1 1 1 1 1 
1 1 1 1 1 1 1 1 1 
1 1 1 1 1 1 1 1 1 
1 1 1 1 1 1 1 1 1 
1 1 1 1 1 1 1 1 1 
1 1 1 1 1 1 1 1 1 
1 1 1 1 1 1 1 1 1 
1 1 1 1 1 1 1 1 1 
1 1 1 1 1 1 1 1 1 
1 1 1 1 1 1 1 1 1 
1 1 1 1 1 1 1 1 1 
1 1 1 1 1 1 1 1 1 
1 1 1 1 1 1 1 1 1 
1 1 1 1 1 1 1 1 1 
1 1 1 1 1 1 1 1 1 
1 1 1 1 1 1 1 1 1 
1 1 1 1 1 1 1 1 1 
1 1 1 1 1 1 1 1 1 
1 1 1 1 1 1 1 1 1 
1 1 1 1 1 1 1 1 1 
1 1 1 1 1 1 1 1 1 
1 1 1 1 1 1 1 1 1 
1 1 1 1 1 1 1 1 1 
1 1 1 1 1 1 1 1 1 
1 1 1 1 1 1 1 1 1 
1 1 1 1 1 1 1 1 1 
1 1 1 1 1 1 1 1 1 
1 1 1 1 1 1 1 1 1 
1 1 1 1 1 1 1 1 1 
1 1 1 1 1 1 1 1 1 
1 1 1 1 1 1 1 1 1 
1 1 1 1 1 1 1 1 1 
1 1 1 1 1 1 1 1 1 
1 1 1 1 1 1 1 1 1 
1 1 1 1 1 1 1 1 1 
1 1 1 1 1 1 1 1 1 
1 1 1 1 1 1 1 1 1 
1 1 1 1 1 1 1 1 1 
1 1 1 1 1 1 1 1 1 
1 1 1 1 1 1 1 1 1 
1 1 1 1 1 1 1 1 1 
1 1 1 1 1 1 1 1 1 
1 1 1 1 1 1 1 1 1 
1 1 1 1 1 1 1 1 1 
1 1 1 1 1 1 1 1 1 
1 1 1 1 1 1 1 1 1 
1 1 1 1 1 1 1 1 1 
1 1 1 1 1 1 1 1 1 
1 1 1 1 1 1 1 1 1 
1 1 1 1 1 1 1 1 1 
1 1 1 1 1 1 1 1 1 
1 1 1 1 1 1 1 1 1 
1 1 1 1 1 1 1 1 1 
1 1 1 1 1 1 1 1 1 
1 1 1 1 1 1 1 1 1 
1 1 1 1 1 1 1 1 1 
1 1 1 1 1 1 1 1 1 
1 1 1 1 1 1 1 1 1 
1 1 1 1 1 1 1 1 1 
1 1 1 1 1 1 1 1 1 
1 1 1 1 1 1 1 1 1 
1 1 1 1 1 1 1 1 1 
1 1 1 1 1 1 1 1 1 
1 1 1 1 1 1 1 1 1 
1 1 1 1 1 1 1 1 1 
1 1 1 1 1 1 1 1 1 
1 1 1 1 1 1 1 1 1 
1 1 1 1 1 1 1 1 1 
1 1 1 1 1 1 1 1 1 
1 1 1 1 1 1 1 1 1 
1 1 1 1 1 1 1 1 1 
1 1 1 1 1 1 1 1 1 
1 1 1 1 1 1 1 1 1 
1 1 1 1 1 1 1 1 1 
1 1 1 1 1 1 1 1 1 
1 1 1 1 1 1 1 1 1 
1 1 1 1 1 1 1 1 1 
1 1 1 1 1 1 1 1 1 
1 1 1 1 1 1 1 1 1 
1 1 1 1 1 1 1 1 1 
1 1 1 1 1 1 1 1 1 
1 1 1 1 1 1 1 1 1 
1 1 1 1 1 1 1 1 1 
1 1 1 1 1 1 1 1 1 
1 1 1 1 1 1 1 1 1 
1 1 1 1 1 1 1 1 1 
1 1 1 1 1 1 1 1 1 
1 1 1 1 1 1 1 1 1 
1 1 1 1 1 1 1 1 1 
1 1 1 1 1 1 1 1 1 
1 1 1 1 1 1 1 1 1 
1 1 1 1 1 1 1 1 1 
1 1 1 1 1 1 1 1 1 
1 1 1 1 1 1 1 1 1 
1 1 1 1 1 1 1 1 1 
1 1 1 1 1 1 1 1 1 
1 1 1 1 1 1 1 1 1 
1 1 1 1 1 1 1 1 1 
1 1 1 1 1 1 1 1 1 
1 1 1 1 1 1 1 1 1 
1 1 1 1 1 1 1 1 1 
1 1 1 1 1 1 1 1 1 
1 1 1 1 1 1 1 1 1 
1 1 1 1 1 1 1 1 1 
1 1 1 1 1 1 1 1 1 
1 1 1 1 1 1 1 1 1 
1 1 1 1 1 1 1 1 1 
1 1 1 1 1 1 1 1 1 
1 1 1 1 1 1 1 1 1 
1 1 1 1 1 1 1 1 1 
1 1 1 1 1 1 1 1 1 
1 1 1 1 1 1 1 1 1 
1 1 1 1 1 1 1 1 1 
1 1 1 1 1 1 1 1 1 
1 1 1 1 1 1 1 1 1 
1 1 1 1 1 1 1 1 1 
1 1 1 1 1 1 1 1 1 
1 1 1 1 1 1 1 1 1 
1 1 1 1 1 1 1 1 1 
1 1 1 1 1 1 1 1 1 
1 1 1 1 1 1 1 1 1 
1 1 1 1 1 1 1 1 1 
1 1 1 1 1 1 1 1 1 
1 1 1 1 1 1 1 1 1 
1 1 1 1 1 1 1 1 1 
1 1 1 1 1 1 1 1 1 
1 1 1 1 1 1 1 1 1 
1 1 1 1 1 1 1 1 1 
1 1 1 1 1 1 1 1 1 
1 1 1 1 1 1 1 1 1 
1 1 1 1 1 1 1 1 1 
1 1 1 1 1 1 1 1 1 
1 1 1 1 1 1 1 1 1 
1 1 1 1 1 1 1 1 1 
1 1 1 1 1 1 1 1 1 
1 1 1 1 1 1 1 1 1 
1 1 1 1 1 1 1 1 1 
1 1 1 1 1 1 1 1 1 
1 1 1 1 1 1 1 1 1 
1 1 1 1 1 1 1 1 1 
1 1 1 1 1 1 1 1 1 
1 1 1 1 1 1 1 1 1 
1 1 1 1 1 1 1 1 1 
1 1 1 1 1 1 1 1 1 
1 1 1 1 1 1 1 1 1 
1 1 1 1 1 1 1 1 1 
1 1 1 1 1 1 1 1 1 
1 1 1 1 1 1 1 1 1 
1 1 1 1 1 1 1 1 1 
1 1 1 1 1 1 1 1 1 
1 1 1 1 1 1 1 1 1 
1 1 1 1 1 1 1 1 1 
1 1 1 1 1 1 1 1 1 
1 1 1 1 1 1 1 1 1 
1 1 1 1 1 1 1 1 1 
1 1 1 1 1 1 1 1 1 
1 1 1 1 1 1 1 1 1 
1 1 1 1 1 1 1 1 1 
1 1 1 1 1 1 1 1 1 
1 1 1 1 1 1 1 1 1 
1 1 1 1 1 1 1 1 1 
1 1 1 1 1 1 1 1 1 
1 1 1 1 1 1 1 1 1 
1 1 1 1 1 1 1 1 1 
1 1 1 1 1 1 1 1 1 
1 1 1 1 1 1 1 1 1 
1 1 1 1 1 1 1 1 1 
1 1 1 1 1 1 1 1 1 
1 1 1 1 1 1 1 1 1 
1 1 1 1 1 1 1 1 1 
1 1 1 1 1 1 1 1 1 
1 1 1 1 1 1 1 1 1 
1 1 1 1 1 1 1 1 1 
1 1 1 1 1 1 1 1 1 
1 1 1 1 1 1 1 1 1 
1 1 1 1 1 1 1 1 1 
1 1 1 1 1 1 1 1 1 
1 1 1 1 1 1 1 1 1 
1 1 1 1 1 1 1 1 1 
1 1 1 1 1 1 1 1 1 
1 1 1 1 1 1 1 1 1 
1 1 1 1 1 1 1 1 1 
1 1 1 1 1 1 1 1 1 
1 1 1 1 1 1 1 1 1 
1 1 1 1 1 1 1 1 1 
1 1 1 1 1 1 1 1 1 
1 1 1 1 1 1 1 1 1 
1 1 1 1 1 1 1 1 1 
1 1 1 1 1 1 1 1 1 
1 1 1 1 1 1 1 1 1 
1 1 1 1 1 1 1 1 1 
1 1 1 1 1 1 1 1 1 
1 1 1 1 1 1 1 1 1 
1 1 1 1 1 1 1 1 1 
1 1 1 1 1 1 1 1 1 
1 1 1 1 1 1 1 1 1 
1 1 1 1 1 1 1 1 1 
1 1 1 1 1 1 1 1 1 
1 1 1 1 1 1 1 1 1 
1 1 1 1 1 1 1 1 1 
1 1 1 1 1 1 1 1 1 
1 1 1 1 1 1 1 1 1 
1 1 1 1 1 1 1 1 1 
1 1 1 1 1 1 1 1 1 
1 1 1 1 1 1 1 1 1 
1 1 1 1 1 1 1 1 1 
1 1 1 1 1 1 1 1 1 
1 1 1 1 1 1 1 1 1 
1 1 1 1 1 1 1 1 1 
1 1 1 1 1 1 1 1 1 
1 1 1 1 1 1 1 1 1 
1 1 1 1 1 1 1 1 1 
1 1 1 1 1 1 1 1 1 
1 1 1 1 1 1 1 1 1 
1 1 1 1 1 1 1 1 1 
1 1 1 1 1 1 1 1 1 
1 1 1 1 1 1 1 1 1 
1 1 1 1 1 1 1 1 1 
1 1 1 1 1 1 1 1 1 
1 1 1 1 1 1 1 1 1 
1 1 1 1 1 1 1 1 1 
1 1 1 1 1 1 1 1 1 
1 1 1 1 1 1 1 1 1 
1 1 1 1 1 1 1 1 1 
1 1 1 1 1 1 1 1 1 
1 1 1 1 1 1 1 1 1 
1 1 1 1 1 1 1 1 1 
1 1 1 1 1 1 1 1 1 
1 1 1 1 1 1 1 1 1 
1 1 1 1 1 1 1 1 1 
1 1 1 1 1 1 1 1 1 
1 1 1 1 1 1 1 1 1 
1 1 1 1 1 1 1 1 1 
1 1 1 1 1 1 1 1 1 
1 1 1 1 1 1 1 1 1 
1 1 1 1 1 1 1 1 1 
1 1 1 1 1 1 1 1 1 
1 1 1 1 1 1 1 1 1 
1 1 1 1 1 1 1 1 1 
1 1 1 1 1 1 1 1 1 
1 1 1 1 1 1 1 1 1 
1 1 1 1 1 1 1 1 1 
1 1 1 1 1 1 1 1 1 
1 1 1 1 1 1 1 1 1 
1 1 1 1 1 1 1 1 1 
1 1 1 1 1 1 1 1 1 
1 1 1 1 1 1 1 1 1 
1 1 1 1 1 1 1 1 1 
1 1 1 1 1 1 1 1 1 
1 1 1 1 1 1 1 1 1 
1 1 1 1 1 1 1 1 1 
1 1 1 1 1 1 1 1 1 
1 1 1 1 1 1 1 1 1 
1 1 1 1 1 1 1 1 1 
1 1 1 1 1 1 1 1 1 
1 1 1 1 1 1 1 1 1 
1 1 1 1 1 1 1 1 1 
1 1 1 1 1 1 1 1 1 
1 1 1 1 1 1 1 1 1 
1 1 1 1 1 1 1 1 1 
1 1 1 1 1 1 1 1 1 
1 1 1 1 1 1 1 1 1 
1 1 1 1 1 1 1 1 1 
1 1 1 1 1 1 1 1 1 
1 1 1 1 1 1 1 1 1 
1 1 1 1 1 1 1 1 1 
1 1 1 1 1 1 1 1 1 
1 1 1 1 1 1 1 1 1 
1 1 1 1 1 1 1 1 1 
1 1 1 1 1 1 1 1 1 
1 1 1 1 1 1 1 1 1 
1 1 1 1 1 1 1 1 1 
1 1 1 1 1 1 1 1 1 
1 1 1 1 1 1 1 1 1 
1 1 1 1 1 1 1 1 1 
1 1 1 1 1 1 1 1 1 
1 1 1 1 1 1 1 1 1 
1 1 1 1 1 1 1 1 1 
1 1 1 1 1 1 1 1 1 
1 1 1 1 1 1 1 1 1 
1 1 1 1 1 1 1 1 1 
1 1 1 1 1 1 1 1 1 
1 1 1 1 1 1 1 1 1 
1 1 1 1 1 1 1 1 1 
1 1 1 1 1 1 1 1 1 
1 1 1 1 1 1 1 1 1 
1 1 1 1 1 1 1 1 1 
1 1 1 1 1 1 1 1 1 
1 1 1 1 1 1 1 1 1 
1 1 1 1 1 1 1 1 1 
1 1 1 1 1 1 1 1 1 
1 1 1 1 1 1 1 1 1 
1 1 1 1 1 1 1 1 1 
1 1 1 1 1 1 1 1 1 
1 1 1 1 1 1 1 1 1 
1 1 1 1 1 1 1 1 1 
1 1 1 1 1 1 1 1 1 
1 1 1 1 1 1 1 1 1 
1 1 1 1 1 1 1 1 1 
1 1 1 1 1 1 1 1 1 
1 1 1 1 1 1 1 1 1 
1 1 1 1 1 1 1 1 1 
1 1 1 1 1 1 1 1 1 
1 1 1 1 1 1 1 1 1 
1 1 1 1 1 1 1 1 1 
1 1 1 1 1 1 1 1 1 
1 1 1 1 1 1 1 1 1 
1 1 1 1 1 1 1 1 1 
1 1 1 1 1 1 1 1 1 
1 1 1 1 1 1 1 1 1 
1 1 1 1 1 1 1 1 1 
1 1 1 1 1 1 1 1 1 
1 1 1 1 1 1 1 1 1 
1 1 1 1 1 1 1 1 1 
1 1 1 1 1 1 1 1 1 
1 1 1 1 1 1 1 1 1 
1 1 1 1 1 1 1 1 1 
1 1 1 1 1 1 1 1 1 
1 1 1 1 1 1 1 1 1 
1 1 1 1 1 1 1 1 1 
1 1 1 1 1 1 1 1 1 
1 1 1 1 1 1 1 1 1 
1 1 1 1 1 1 1 1 1 
1 1 1 1 1 1 1 1 1 
1 1 1 1 1 1 1 1 1 
1 1 1 1 1 1 1 1 1 
1 1 1 1 1 1 1 1 1 
1 1 1 1 1 1 1 1 1 
1 1 1 1 1 1 1 1 1 
1 1 1 1 1 1 1 1 1 
1 1 1 1 1 1 1 1 1 
1 1 1 1 1 1 1 1 1 
1 1 1 1 1 1 1 1 1 
1 1 1 1 1 1 1 1 1 
1 1 1 1 1 1 1 1 1 
1 1 1 1 1 1 1 1 1 
1 1 1 1 1 1 1 1 1 
1 1 1 1 1 1 1 1 1 
1 1 1 1 1 1 1 1 1 
1 1 1 1 1 1 1 1 1 
1 1 1 1 1 1 1 1 1 
1 1 1 1 1 1 1 1 1 
1 1 1 1 1 1 1 1 1 
1 1 1 1 1 1 1 1 1 
1 1 1 1 1 1 1 1 1 
1 1 1 1 1 1 1 1 1 
1 1 1 1 1 1 1 1 1 
1 1 1 1 1 1 1 1 1 
1 1 1 1 1 1 1 1 1 
1 1 1 1 1 1 1 1 1 
1 1 1 1 1 1 1 1 1 
1 1 1 1 1 1 1 1 1 
1 1 1 1 1 1 1 1 1 
1 1 1 1 1 1 1 1 1 
1 1 1 1 1 1 1 1 1 
1 1 1 1 1 1 1 1 1 
1 1 1 1 1 1 1 1 1 
1 1 1 1 1 1 1 1 1 
1 1 1 1 1 1 1 1 1 
1 1 1 1 1 1 1 1 1 
1 1 1 1 1 1 1 1 1 
1 1 1 1 1 1 1 1 1 
1 1 1 1 1 1 1 1 1 
1 1 1 1 1 1 1 1 1 
1 1 1 1 1 1 1 1 1 
1 1 1 1 1 1 1 1 1 
1 1 1 1 1 1 1 1 1 
1 1 1 1 1 1 1 1 1 
1 1 1 1 1 1 1 1 1 
1 1 1 1 1 1 1 1 1 
1 1 1 1 1 1 1 1 1 
1 1 1 1 1 1 1 1 1 
1 1 1 1 1 1 1 1 1 
1 1 1 1 1 1 1 1 1 
1 1 1 1 1 1 1 1 1 
1 1 1 1 1 1 1 1 1 
1 1 1 1 1 1 1 1 1 
1 1 1 1 1 1 1 1 1 
1 1 1 1 1 1 1 1 1 
1 1 1 1 1 1 1 1 1 
1 1 1 1 1 1 1 1 1 
1 1 1 1 1 1 1 1 1 
1 1 1 1 1 1 1 1 1 
1 1 1 1 1 1 1 1 1 
1 1 1 1 1 1 1 1 1 
1 1 1 1 1 1 1 1 1 
1 1 1 1 1 1 1 1 1 
1 1 1 1 1 1 1 1 1 
1 1 1 1 1 1 1 1 1 
1 1 1 1 1 1 1 1 1 
1 1 1 1 1 1 1 1 1 
1 1 1 1 1 1 1 1 1 
1 1 1 1 1 1 1 1 1 
1 1 1 1 1 1 1 1 1 
1 1 1 1 1 1 1 1 1 
1 1 1 1 1 1 1 1 1 
1 1 1 1 1 1 1 1 1 
1 1 1 1 1 1 1 1 1 
1 1 1 1 1 1 1 1 1 
1 1 1 1 1 1 1 1 1 
1 1 1 1 1 1 1 1 1 
1 1 1 1 1 1 1 1 1 
1 1 1 1 1 1 1 1 1 
1 1 1 1 1 1 1 1 1 
1 1 1 1 1 1 1 1 1 
1 1 1 1 1 1 1 1 1 
1 1 1 1 1 1 1 1 1 
1 1 1 1 1 1 1 1 1 
1 1 1 1 1 1 1 1 1 
1 1 1 1 1 1 1 1 1 
1 1 1 1 1 1 1 1 1 
1 1 1 1 1 1 1 1 1 
1 1 1 1 1 1 1 1 1 
1 1 1 1 1 1 1 1 1 
1 1 1 1 1 1 1 1 1 
1 1 1 1 1 1 1 1 1 
1 1 1 1 1 1 1 1 1 
1 1 1 1 1 1 1 1 1 
1 1 1 1 1 1 1 1 1 
1 1 1 1 1 1 1 1 1 
1 1 1 1 1 1 1 1 1 
1 1 1 1 1 1 1 1 1 
1 1 1 1 1 1 1 1 1 
1 1 1 1 1 1 1 1 1 
1 1 1 1 1 1 1 1 1 
1 1 1 1 1 1 1 1 1 
1 1 1 1 1 1 1 1 1 
1 1 1 1 1 1 1 1 1 
1 1 1 1 1 1 1 1 1 
1 1 1 1 1 1 1 1 1 
1 1 1 1 1 1 1 1 1 
1 1 1 1 1 1 1 1 1 
1 1 1 1 1 1 1 1 1 
1 1 1 1 1 1 1 1 1 
1 1 1 1 1 1 1 1 1 
1 1 1 1 1 1 1 1 1 
1 1 1 1 1 1 1 1 1 
1 1 1 1 1 1 1 1 1 
1 1 1 1 1 1 1 1 1 
1 1 1 1 1 1 1 1 1 
1 1 1 1 1 1 1 1 1 
1 1 1 1 1 1 1 1 1 
1 1 1 1 1 1 1 1 1 
1 1 1 1 1 1 1 1 1 
1 1 1 1 1 1 1 1 1 
1 1 1 1 1 1 1 1 1 
1 1 1 1 1 1 1 1 1 
1 1 1 1 1 1 1 1 1 
1 1 1 1 1 1 1 1 1 
1 1 1 1 1 1 1 1 1 
1 1 1 1 1 1 1 1 1 
1 1 1 1 1 1 1 1 1 
1 1 1 1 1 1 1 1 1 
1 1 1 1 1 1 1 1 1 
1 1 1 1 1 1 1 1 1 
1 1 1 1 1 1 1 1 1 
1 1 1 1 1 1 1 1 1 
1 1 1 1 1 1 1 1 1 
1 1 1 1 1 1 1 1 1 
1 1 1 1 1 1 1 1 1 
1 1 1 1 1 1 1 1 1 
1 1 1 1 1 1 1 1 1 
1 1 1 1 1 1 1 1 1 
1 1 1 1 1 1 1 1 1 
1 1 1 1 1 1 1 1 1 
1 1 1 1 1 1 1 1 1 
1 1 1 1 1 1 1 1 1 
1 1 1 1 1 1 1 1 1 
1 1 1 1 1 1 1 1 1 
1 1 1 1 1 1 1 1 1 
1 1 1 1 1 1 1 1 1 
1 1 1 1 1 1 1 1 1 
1 1 1 1 1 1 1 1 1 
1 1 1 1 1 1 1 1 1 
1 1 1 1 1 1 1 1 1 
1 1 1 1 1 1 1 1 1 
1 1 1 1 1 1 1 1 1 
1 1 1 1 1 1 1 1 1 
1 1 1 1 1 1 1 1 1 
1 1 1 1 1 1 1 1 1 
1 1 1 1 1 1 1 1 1 
1 1 1 1 1 1 1 1 1 
1 1 1 1 1 1 1 1 1 
1 1 1 1 1 1 1 1 1 
1 1 1 1 1 1 1 1 1 
1 1 1 1 1 1 1 1 1 
1 1 1 1 1 1 1 1 1 
1 1 1 1 1 1 1 1 1 
1 1 1 1 1 1 1 1 1 
1 1 1 1 1 1 1 1 1 
1 1 1 1 1 1 1 1 1 
1 1 1 1 1 1 1 1 1 
1 1 1 1 1 1 1 1 1 
1 1 1 1 1 1 1 1 1 
1 1 1 1 1 1 1 1 1 
1 1 1 1 1 1 1 1 1 
1 1 1 1 1 1 1 1 
NORMALS normals float
-0.0204039 0 -0.999792 -0.0145772 -0.699705 -0.714283 -0.707107 0 -0.707107 
0 0 -1 0 -0.69978 -0.714359 0 0 -1 
0 -0.69978 -0.714359 0.0204039 0 -0.999792 0.0145772 -0.699705 -0.714283 
0.707107 0 -0.707107 0 -0.0204039 -0.999792 0 -0.999792 -0.0204039 
-0.569415 -0.581277 -0.581277 0.699705 -0.0145772 -0.714283 -0.0145772 0.699705 -0.714283 
0 0.69978 -0.714359 0 0.69978 -0.714359 0.0145772 0.699705 -0.714283 
-0.0204039 0 -0.999792 -0.581277 -0.569415 -0.581277 -0.707107 0 -0.707107 
0.0203997 0.0203997 -0.999584 0.707033 0.0144292 -0.707033 -0.0145772 0.699705 -0.714283 
0.0144292 0.707033 -0.707033 -0.0203997 -0.0203997 -0.999584 -0.0144292 -0.707033 -0.707033 
-0.57735 -0.57735 -0.57735 0.0203997 -0.0203997 -0.999584 0.0144292 -0.707033 -0.707033 
0.999584 -0.0203997 -0.0203997 -0.0203997 -0.0203997 -0.999584 -0.57735 -0.57735 -0.57735 
-0.57735 -0.57735 -0.57735 0 0 -1 0.0204039 0 -0.999792 
0.999792 0 -0.0204039 -0.0144292 -0.707033 -0.707033 -0.0144292 -0.707033 -0.707033 
-0.707033 -0.707033 -0.0144292 0 -0.707107 -0.707107 0 -0.707107 -0.707107 
0 -0.707107 -0.707107 -0.569415 -0.581277 -0.581277 0 -0.69978 -0.714359 
0 0 -1 0.0203997 0.0203997 -0.999584 0.999584 0.0203997 -0.0203997 
-0.707033 -0.0144292 -0.707033 -0.707033 -0.707033 -0.0144292 -0.707033 -0.707033 -0.0144292 
0.707033 0.0144292 -0.707033 0.707033 0.707033 -0.0144292 0.707033 0.707033 -0.0144292 
-0.57735 -0.57735 -0.57735 -0.0203997 -0.999584 -0.0203997 -0.707033 -0.707033 -0.0144292 
0 -1 0 0.699705 -0.0145772 -0.714283 -0.699705 -0.714283 -0.0145772 
0 0 -1 0 0.69978 -0.714359 0 0.69978 -0.714359 
0 0.69978 -0.714359 0.0145772 0.699705 -0.714283 0.714283 0.699705 -0.0145772 
0.707033 0.707033 -0.0144292 -0.714359 0 -0.69978 -0.714359 -0.69978 0 
-1 0 0 0.69978 0 -0.714359 0 0 -1 
0 0 -1 0 0 -1 0 0 -1 
0.0204039 0 -0.999792 0.999792 0 -0.0204039 -0.585286 0.573341 -0.573341 
-0.0145772 0.699705 -0.714283 -0.581277 0.569415 -0.581277 0 0.69978 -0.714359 
0 0 -1 0 0 -1 0 0 -1 
0 0 -1 0 0 -1 0.0203997 0.0203997 -0.999584 
0.999584 0.0203997 -0.0203997 -0.0203997 0.0203997 -0.999584 -0.999584 0.0203997 -0.0203997 
0 0.0204039 -0.999792 0 0.0204039 -0.999792 0 0.0204039 -0.999792 
0 0.0204039 -0.999792 0 0.0204039 -0.999792 0.0203997 0.0203997 -0.999584 
0.707033 0.707033 -0.0144292 0.707033 0.707033 -0.0144292 -0.0203997 0.999584 -0.0203997 
0 0.999792 -0.0204039 0 0.999792 -0.0204039 0 0.999792 -0.0204039 
0 0.999792 -0.0204039 0 0.999792 -0.0204039 0.0203997 0.999584 -0.0203997 
0 -0.0204039 -0.999792 0 -0.999792 -0.0204039 -0.699705 -0.0145772 -0.714283 
0.699705 -0.0145772 -0.714283 0 0 -1 -0.69978 0 -0.714359 
0.69978 0 -0.714359 0 0.0204039 -0.999792 -0.577267 -0.56524 -0.589293 
0.699705 0.0145772 -0.714283 0 0 -1 -0.573341 -0.573341 -0.585286 
-0.573341 -0.573341 -0.585286 0.569415 0.581277 -0.581277 0.573341 0.573341 -0.585286 
0 -0.0204039 -0.999792 -0.569415 -0.581277 -0.581277 -0.699705 -0.0145772 -0.714283 
0.573341 0.573341 -0.585286 0.577267 0.56524 -0.589293 0 0 -1 
-0.69978 0 -0.714359 0.69978 0 -0.714359 0 0 -1 
-0.573341 -0.573341 -0.585286 0.69978 0 -0.714359 -0.0203997 -0.0203997 -0.999584 
-0.0144292 -0.707033 -0.707033 -0.707033 -0.0144292 -0.707033 0 -0.707107 -0.707107 
-0.569415 -0.581277 -0.581277 0.0145772 -0.699705 -0.714283 0.707107 0 -0.707107 
-0.581277 -0.569415 -0.581277 -0.581277 -0.569415 -0.581277 1 0 0 
-0.0144292 -0.707033 -0.707033 -0.0144292 -0.707033 -0.707033 -0.999584 -0.0203997 -0.0203997 
0 -0.707107 -0.707107 0 -0.707107 -0.707107 -0.569415 -0.581277 -0.581277 
-0.569415 -0.581277 -0.581277 1 0 0 -0.714359 -0.69978 0 
0.999792 0.0204039 0 -0.707107 -0.707107 0 -0.707107 -0.707107 0 
0.707107 0.707107 0 0.707107 0.707107 0 -0.0203997 -0.999584 0.0203997 
-0.999584 -0.0203997 0.0203997 0 -0.999792 0.0204039 -0.69978 -0.714359 0 
0.714359 0.69978 0 0.707107 0.707107 0 -0.585286 -0.573341 0.573341 
-0.581277 -0.569415 0.581277 1 0 0 -0.585286 -0.573341 0.573341 
-1 0 0 -0.585286 0.573341 -0.573341 0.999792 0.0204039 0 
-0.585286 0.573341 -0.573341 -0.581277 0.581277 -0.569415 0.707107 0.707107 0 
0.707107 0.707107 0 -0.0145772 0.714283 -0.699705 0 0.714359 -0.69978 
0 0.714359 -0.69978 0 0.714359 -0.69978 0 0.714359 -0.69978 
0 0.714359 -0.69978 0.0204039 0.999792 0 -0.707033 -0.0144292 -0.707033 
-0.0203997 -0.999584 -0.0203997 -0.999584 -0.0203997 -0.0203997 0 -1 0 
0.699705 -0.0145772 -0.714283 0 -0.999792 -0.0204039 0.0203997 -0.0203997 -0.999584 
0.0203997 -0.999584 -0.0203997 0.999584 -0.0203997 -0.0203997 -0.707107 0 -0.707107 
-0.707107 0 -0.707107 0.69978 0 -0.714359 0.0204039 0 -0.999792 
0.999792 0 -0.0204039 -0.581277 -0.569415 -0.581277 -0.581277 -0.569415 -0.581277 
0.69978 0 -0.714359 0.0203997 0.0203997 -0.999584 0.999584 0.0203997 -0.0203997 
-0.57735 -0.57735 -0.57735 -0.57735 -0.57735 -0.57735 -0.57735 -0.57735 -0.57735 
0.573341 0.573341 -0.585286 0.0203997 0.0203997 -0.999584 0.707033 0.707033 -0.0144292 
0.707033 0.707033 -0.0144292 -0.707033 -0.0144292 -0.707033 -0.57735 -0.57735 -0.57735 
-0.707033 -0.707033 -0.0144292 0.573341 0.573341 -0.585286 0.0204039 0 -0.999792 
0.714283 0.699705 -0.0145772 0.707033 0.707033 -0.0144292 -0.0203997 -0.0203997 -0.999584 
-0.707033 -0.707033 -0.0144292 -0.707033 -0.707033 -0.0144292 -0.69978 0 -0.714359 
0.69978 0 -0.714359 0.0204039 0 -0.999792 0.999792 0 -0.0204039 
-0.0203997 -0.0203997 -0.999584 -0.707033 -0.707033 -0.0144292 -0.707033 -0.707033 -0.0144292 
0 -0.69978 -0.714359 -0.573341 -0.573341 -0.585286 0.69978 0 -0.714359 
0.0203997 0.0203997 -0.999584 0.999584 0.0203997 -0.0203997 -0.0203997 -0.0203997 -0.999584 
-0.707033 -0.707033 -0.0144292 -0.707033 -0.707033 -0.0144292 -0.69978 0 -0.714359 
0.707033 0.0144292 -0.707033 0.707033 0.707033 -0.0144292 0.707033 0.707033 -0.0144292 
-0.0144292 -0.707033 -0.707033 -0.707033 -0.707033 -0.0144292 -0.999584 -0.0203997 -0.0203997 
0 -0.69978 -0.714359 -0.573341 -0.573341 -0.585286 0.714359 0.69978 0 