# vtk DataFile Version 3.0
vtk output
ASCII
DATASET POLYDATA
POINTS 1778 float
131 104 75.0125 131 103.012 76 130.012 104 76 
132 104 75.0125 132 103.012 76 132.988 104 76 
130 105 75.0125 130 104.012 76 129.012 105 76 
131 105 75.0125 132 105 75.0125 132.988 105 76 
130 105.988 76 130.012 106 76 131 106 75.0125 
132 106 75.0125 133 105.012 76 133 106 75.0125 
134 106 75.0125 134 105.012 76 134.988 106 76 
131 107 75.0125 130.012 107 76 132 107 75.0125 
133 107 75.0125 134 107 75.0125 134.988 107 76 
131 107.988 76 132 107.988 76 132.012 108 76 
133 108 75.0125 134 108 75.0125 135 107.012 76 
135 108 75.0125 136 108 75.0125 136 107.012 76 
136.988 108 76 133 109 75.0125 132.012 109 76 
134 109 75.0125 135 109 75.0125 136 109 75.0125 
136.988 109 76 133 110 75.0125 132.012 110 76 
134 110 75.0125 135 110 75.0125 136 110 75.0125 
137 109.012 76 137 110 75.0125 138 110 75.0125 
138 109.012 76 139 110 75.0125 139 109.012 76 
140 110 75.0125 140 109.012 76 140.988 110 76 
133 111 75.0125 132.012 111 76 134 111 75.0125 
135 111 75.0125 136 111 75.0125 137 111 75.0125 
138 111 75.0125 139 111 75.0125 140 111 75.0125 
140.988 111 76 133 111.988 76 134 111.988 76 
134.012 112 76 135 112 75.0125 136 112 75.0125 
137 112 75.0125 138 112 75.0125 139 112 75.0125 
140 112 75.0125 141 111.012 76 141 112 75.0125 
142 112 75.0125 142 111.012 76 142.988 112 76 
135 113 75.0125 134.012 113 76 136 113 75.0125 
137 113 75.0125 138 113 75.0125 139 113 75.0125 
140 113 75.0125 141 113 75.0125 142 113 75.0125 
142.988 113 76 135 113.988 76 136 113.988 76 
136.012 114 76 137 114 75.0125 138 114 75.0125 
139 114 75.0125 140 114 75.0125 141 114 75.0125 
142 114 75.0125 142.988 114 76 137 115 75.0125 
136.012 115 76 138 115 75.0125 139 115 75.0125 
140 115 75.0125 141 115 75.0125 142 115 75.0125 
142.988 115 76 137 115.988 76 138 115.988 76 
138.012 116 76 139 116 75.0125 140 116 75.0125 
141 116 75.0125 142 116 75.0125 143 115.012 76 
143 116 75.0125 144 116 75.0125 144 115.012 76 
144.988 116 76 139 117 75.0125 138.012 117 76 
140 117 75.0125 141 117 75.0125 142 117 75.0125 
143 117 75.0125 144 117 75.0125 144.988 117 76 
139 118 75.0125 138.012 118 76 140 118 75.0125 
141 118 75.0125 142 118 75.0125 143 118 75.0125 
144 118 75.0125 144.988 118 76 139 119 75.0125 
138.012 119 76 140 119 75.0125 141 119 75.0125 
142 119 75.0125 143 119 75.0125 144 119 75.0125 
144.988 119 76 139 119.988 76 140 119.988 76 
140.012 120 76 141 120 75.0125 142 120 75.0125 
143 120 75.0125 144 120 75.0125 144.988 120 76 
141 121 75.0125 140.012 121 76 142 121 75.0125 
143 121 75.0125 144 121 75.0125 144.988 121 76 
141 121.988 76 142 121.988 76 142.012 122 76 
143 122 75.0125 144 122 75.0125 144.988 122 76 
143 123 75.0125 142.012 123 76 143.988 123 76 
144 122.988 76 143 123.988 76 157 128 75.0125 
157 127.012 76 156.012 128 76 158 128 75.0125 
158 127.012 76 158.988 128 76 157 129 75.0125 
156.012 129 76 158 129 75.0125 158.988 129 76 
157 130 75.0125 156.012 130 76 158 130 75.0125 
158.988 130 76 157 131 75.0125 156.012 131 76 
157.988 131 76 158 130.988 76 157 131.988 76 
130 103 76.0125 130 102.012 77 129.012 103 77 
131 103 76.0125 131 102.012 77 132 103 76.0125 
132 102.012 77 132.988 103 77 130 104 76.0125 
129.012 104 77 132.988 104 77 129 105 76.0125 
129 104.012 77 128.012 105 77 133 104.012 77 
133 105 76.0125 134 105 76.0125 134 104.012 77 
134.988 105 77 129 105.988 77 130 106 76.0125 
129.012 106 77 134.988 106 77 130 106.988 77 
130.012 107 77 135 106.012 77 135 107 76.0125 
136 107 76.0125 136 106.012 77 136.988 107 77 
131 107.988 77 132 108 76.0125 131.012 108 77 
136.988 108 77 132 109 76.0125 131.012 109 77 
137 108.012 77 137 109 76.0125 138 109 76.0125 
138 108.012 77 138.988 109 77 132 110 76.0125 
131.012 110 77 139 109.012 77 140 109.012 77 
140.988 110 77 132 110.988 77 132.012 111 77 
140.988 111 77 133 111.988 77 134 111.988 77 
134.012 112 77 141 111.012 77 142 111.012 77 
142.988 112 77 134.012 113 77 142.988 113 77 
135 113.988 77 136 113.988 77 136.012 114 77 
142.988 114 77 136.012 115 77 143 114.012 77 
143 115 76.0125 143.988 115 77 137 115.988 77 
138 116 76.0125 137.012 116 77 144 115.012 77 
144.988 116 77 138 117 76.0125 137.012 117 77 
144.988 117 77 138 117.988 77 138.012 118 77 
144.988 118 77 138.012 119 77 144.988 119 77 
139 119.988 77 140 120 76.0125 139.012 120 77 
144.988 120 77 140 120.988 77 140.012 121 77 
144.988 121 77 141 121.988 77 142 121.988 77 
142.012 122 77 144.988 122 77 143 122.988 77 
143 123 76.9875 144 122.988 77 157 127 76.0125 
157 126.012 77 156.012 127 77 157.988 127 77 
156.012 128 77 157.988 128 77 158 128 76.9875 
156.012 129 77 158 129 76.9875 157.988 129 77 
156.012 130 77 158 130 76.9875 157.988 130 77 
157 130.988 77 157 131 76.9875 130 99 77.0125 
130 98.0125 78 129.012 99 78 130.988 99 78 
129 100 77.0125 129 99.0125 78 128.012 100 78 
130 100 77.0125 131 99.0125 78 131 100 77.0125 
132 100 77.0125 132 99.0125 78 132.988 100 78 
129 101 77.0125 128.012 101 78 130 101 77.0125 
131 101 77.0125 132 101 77.0125 132.988 101 78 
129 102 77.0125 128.012 102 78 130 102 77.0125 
131 102 77.0125 132 102 77.0125 132.988 102 78 
128 103 77.0125 128 102.012 78 127.012 103 78 
129 103 77.0125 132.988 103 78 128 103.988 78 
128.012 104 78 129 104 77.0125 133 103.012 78 
133 104 77.0125 134 104 77.0125 134 103.012 78 
135 104 77.0125 135 103.012 78 136 104 77.0125 
136 103.012 78 136.988 104 78 128.012 105 78 
135 105 77.0125 136 105 77.0125 136.988 105 78 
129 106 77.0125 128.012 106 78 135 106 77.0125 
136 106 77.0125 137 105.012 78 137 106 77.0125 
138 106 77.0125 138 105.012 78 138.988 106 78 
129 107 77.0125 128.012 107 78 130 107 77.0125 
137 107 77.0125 138 107 77.0125 138.988 107 78 
129 107.988 78 130 107.988 78 131 108 77.0125 
130.012 108 78 137 108 77.0125 138 108 77.0125 
138.988 108 78 131 109 77.0125 130.012 109 78 
138.988 109 78 131 110 77.0125 130.012 110 78 
139 109.012 78 140 109.012 78 140.988 110 78 
131 111 77.0125 130.012 111 78 132 111 77.0125 
140.988 111 78 131 111.988 78 132 111.988 78 
133 111.988 78 134 111.988 78 134.012 112 78 
141 111.012 78 142 111.012 78 142.988 112 78 
134.012 113 78 142.988 113 78 135 113.988 78 
136 113.988 78 136.012 114 78 143 113.012 78 
143 114 77.0125 144 114 77.0125 144 113.012 78 
144.988 114 78 136.012 115 78 144 115 77.0125 
144.988 115 78 137 116 77.0125 136.012 116 78 
145 116 77.0125 145 115.012 78 146 116 77.0125 
146 115.012 78 147 116 77.0125 147 115.012 78 
148 116 77.0125 148 115.012 78 148.988 116 78 
137 117 77.0125 136.012 117 78 145 117 77.0125 
146 117 77.0125 147 117 77.0125 148 117 77.0125 
148.988 117 78 137 117.988 78 138 117.988 78 
138.012 118 78 145 118 77.0125 146 118 77.0125 
147 118 77.0125 148 118 77.0125 149 117.012 78 
149 118 77.0125 150 118 77.0125 150 117.012 78 
150.988 118 78 138.012 119 78 145 119 77.0125 
146 119 77.0125 147 119 77.0125 148 119 77.0125 
149 119 77.0125 150 119 77.0125 150.988 119 78 
139 119.988 78 140 119.988 78 140 120 77.9875 
140.012 120 78 145 120 77.0125 146 120 77.0125 
147 120 77.0125 148 120 77.0125 149 120 77.0125 
150 120 77.0125 151 119.012 78 151 120 77.0125 
152 120 77.0125 152 119.012 78 152.988 120 78 
140.012 121 78 145 121 77.0125 146 121 77.0125 
147 121 77.0125 148 121 77.0125 149 121 77.0125 
150 121 77.0125 151 121 77.0125 152 121 77.0125 
152.988 121 78 141 121.988 78 142 121.988 78 
143 121.988 78 143 122 77.9875 144 121.988 78 
144 122 77.9875 144.012 122 78 145 122 77.0125 
146 122 77.0125 147 122 77.0125 148 122 77.0125 
149 122 77.0125 150 122 77.0125 151 122 77.0125 
152 122 77.0125 153 121.012 78 153 122 77.0125 
154 122 77.0125 154 121.012 78 154.988 122 78 
157 122 77.0125 157 121.012 78 156.012 122 78 
158 122 77.0125 158 121.012 78 158.988 122 78 
144.012 123 78 145 123 77.0125 146 123 77.0125 
147 123 77.0125 148 123 77.0125 149 123 77.0125 
150 123 77.0125 151 123 77.0125 152 123 77.0125 
153 123 77.0125 154 123 77.0125 154.988 123 78 
156 123 77.0125 156 122.012 78 155.012 123 78 
157 123 77.0125 158 123 77.0125 158.988 123 78 
145 123.988 78 146 123.988 78 146.012 124 78 
147 124 77.0125 148 124 77.0125 149 124 77.0125 
150 124 77.0125 151 124 77.0125 152 124 77.0125 
153 124 77.0125 154 124 77.0125 155 123.012 78 
155 124 77.0125 156 124 77.0125 157 124 77.0125 
158 124 77.0125 158.988 124 78 147 125 77.0125 
146.012 125 78 148 125 77.0125 149 125 77.0125 
150 125 77.0125 151 125 77.0125 152 125 77.0125 
153 125 77.0125 154 125 77.0125 155 125 77.0125 
156 125 77.0125 157 125 77.0125 158 125 77.0125 
158.988 125 78 147 125.988 78 148 125.988 78 
149 125.988 78 150 125.988 78 151 125.988 78 
152 125.988 78 153 125.988 78 154 125.988 78 
155 125.988 78 156 125.988 78 156.012 126 78 
157 126 77.0125 158 126 77.0125 158.988 126 78 
156.012 127 78 158 126.988 78 157.988 127 78 
157 127.988 78 157 128 77.9875 157 129 77.9875 
157 130 77.9875 129 99 78.0125 129 98.0125 79 
128.012 99 79 130 98.0125 79 130.988 99 79 
128 100 78.0125 128 99.0125 79 127.012 100 79 
131 99.0125 79 132 99.0125 79 132.988 100 79 
128 101 78.0125 127.012 101 79 132.988 101 79 
128 102 78.0125 127.012 102 79 132.988 102 79 
127 103 78.0125 127 102.012 79 126.012 103 79 
133 102.012 79 133 103 78.0125 134 103 78.0125 
134 102.012 79 135 103 78.0125 135 102.012 79 
135.988 103 79 127 103.988 79 128 104 78.0125 
127.012 104 79 136 103.012 79 136.988 104 79 
128 105 78.0125 127.012 105 79 137 104.012 79 
137 105 78.0125 137.988 105 79 128 105.988 79 
128.012 106 79 138 105.012 79 138.988 106 79 
128.012 107 79 138.988 107 79 129 107.988 79 
130 107.988 79 130.012 108 79 138.988 108 79 
130.012 109 79 139 108.012 79 139 109 78.0125 
140 109 78.0125 140 108.012 79 140.988 109 79 
130.012 110 79 140.988 110 79 131 110.988 79 
131 111 78.9875 132 110.988 79 132 111 78.9875 
132.012 111 79 141 110.012 79 141 111 78.0125 
141.988 111 79 133 111.988 79 134 111.988 79 
134.012 112 79 142 111.012 79 142.988 112 79 
134.012 113 79 143 112.012 79 143 113 78.0125 
[...]
POINT_DATA 1778
SCALARS scalars float
LOOKUP_TABLE default
1 1 1 1 1 1 1 1 1 
1 1 1 1 1 1 1 1 1 
1 1 1 1 1 1 1 1 1 
1 1 1 1 1 1 1 1 1 
1 1 1 1 1 1 1 1 1 
1 1 1 1 1 1 1 1 1 
1 1 1 1 1 1 1 1 1 
1 1 1 1 1 1 1 1 1 
1 1 1 1 1 1 1 1 1 
1 1 1 1 1 1 1 1 1 
1 1 1 1 1 1 1 1 1 
1 1 1 1 1 1 1 1 1 
1 1 1 1 1 1 1 1 1 
1 1 1 1 1 1 1 1 1 
1 1 1 1 1 1 1 1 1 
1 1 1 1 1 1 1 1 1 
1 1 1 1 1 1 1 1 1 
1 1 1 1 1 1 1 1 1 
1 1 1 1 1 1 1 1 1 
1 1 1 1 1 1 1 1 1 
1 1 1 1 1 1 1 1 1 
1 1 1 1 1 1 1 1 1 
1 1 1 1 1 1 1 1 1 
1 1 1 1 1 1 1 1 1 
1 1 1 1 1 1 1 1 1 
1 1 1 1 1 1 1 1 1 
1 1 1 1 1 1 1 1 1 
1 1 1 1 1 1 1 1 1 
1 1 1 1 1 1 1 1 1 
1 1 1 1 1 1 1 1 1 
1 1 1 1 1 1 1 1 1 
1 1 1 1 1 1 1 1 1 
1 1 1 1 1 1 1 1 1 
1 1 1 1 1 1 1 1 1 
1 1 1 1 1 1 1 1 1 
1 1 1 1 1 1 1 1 1 
1 1 1 1 1 1 1 1 1 
1 1 1 1 1 1 1 1 1 
1 1 1 1 1 1 1 1 1 
1 1 1 1 1 1 1 1 1 
1 1 1 1 1 1 1 1 1 
1 1 1 1 1 1 1 1 1 
1 1 1 1 1 1 1 1 1 
1 1 1 1 1 1 1 1 1 
1 1 1 1 1 1 1 1 1 
1 1 1 1 1 1 1 1 1 
1 1 1 1 1 1 1 1 1 
1 1 1 1 1 1 1 1 1 
1 1 1 1 1 1 1 1 1 
1 1 1 1 1 1 1 1 1 
1 1 1 1 1 1 1 1 1 
1 1 1 1 1 1 1 1 1 
1 1 1 1 1 1 1 1 1 
1 1 1 1 1 1 1 1 1 
1 1 1 1 1 1 1 1 1 
1 1 1 1 1 1 1 1 1 
1 1 1 1 1 1 1 1 1 
1 1 1 1 1 1 1 1 1 
1 1 1 1 1 1 1 1 1 
1 1 1 1 1 1 1 1 1 
1 1 1 1 1 1 1 1 1 
1 1 1 1 1 1 1 1 1 
1 1 1 1 1 1 1 1 1 
1 1 1 1 1 1 1 1 1 
1 1 1 1 1 1 1 1 1 
1 1 1 1 1 1 1 1 1 
1 1 1 1 1 1 1 1 1 
1 1 1 1 1 1 1 1 1 
1 1 1 1 1 1 1 1 1 
1 1 1 1 1 1 1 1 1 
1 1 1 1 1 1 1 1 1 
1 1 1 1 1 1 1 1 1 
1 1 1 1 1 1 1 1 1 
1 1 1 1 1 1 1 1 1 
1 1 1 1 1 1 1 1 1 
1 1 1 1 1 1 1 1 1 
1 1 1 1 1 1 1 1 1 
1 1 1 1 1 1 1 1 1 
1 1 1 1 1 1 1 1 1 
1 1 1 1 1 1 1 1 1 
1 1 1 1 1 1 1 1 1 
1 1 1 1 1 1 1 1 1 
1 1 1 1 1 1 1 1 1 
1 1 1 1 1 1 1 1 1 
1 1 1 1 1 1 1 1 1 
1 1 1 1 1 1 1 1 1 
1 1 1 1 1 1 1 1 1 
1 1 1 1 1 1 1 1 1 
1 1 1 1 1 1 1 1 1 
1 1 1 1 1 1 1 1 1 
1 1 1 1 1 1 1 1 1 
1 1 1 1 1 1 1 1 1 
1 1 1 1 1 1 1 1 1 
1 1 1 1 1 1 1 1 1 
1 1 1 1 1 1 1 1 1 
1 1 1 1 1 1 1 1 1 
1 1 1 1 1 1 1 1 1 
1 1 1 1 1 1 1 1 1 
1 1 1 1 1 1 1 1 1 
1 1 1 1 1 1 1 1 1 
1 1 1 1 1 1 1 1 1 
1 1 1 1 1 1 1 1 1 
1 1 1 1 1 1 1 1 1 
1 1 1 1 1 1 1 1 1 
1 1 1 1 1 1 1 1 1 
1 1 1 1 1 1 1 1 1 
1 1 1 1 1 1 1 1 1 
1 1 1 1 1 1 1 1 1 
1 1 1 1 1 1 1 1 1 
1 1 1 1 1 1 1 1 1 
1 1 1 1 1 1 1 1 1 
1 1 1 1 1 1 1 1 1 
1 1 1 1 1 1 1 1 1 
1 1 1 1 1 1 1 1 1 
1 1 1 1 1 1 1 1 1 
1 1 1 1 1 1 1 1 1 
1 1 1 1 1 1 1 1 1 
1 1 1 1 1 1 1 1 1 
1 1 1 1 1 1 1 1 1 
1 1 1 1 1 1 1 1 1 
1 1 1 1 1 1 1 1 1 
1 1 1 1 1 1 1 1 1 
1 1 1 1 1 1 1 1 1 
1 1 1 1 1 1 1 1 1 
1 1 1 1 1 1 1 1 1 
1 1 1 1 1 1 1 1 1 
1 1 1 1 1 1 1 1 1 
1 1 1 1 1 1 1 1 1 
1 1 1 1 1 1 1 1 1 
1 1 1 1 1 1 1 1 1 
1 1 1 1 1 1 1 1 1 
1 1 1 1 1 1 1 1 1 
1 1 1 1 1 1 1 1 1 
1 1 1 1 1 1 1 1 1 
1 1 1 1 1 1 1 1 1 
1 1 1 1 1 1 1 1 1 
1 1 1 1 1 1 1 1 1 
1 1 1 1 1 1 1 1 1 
1 1 1 1 1 1 1 1 1 
1 1 1 1 1 1 1 1 1 
1 1 1 1 1 1 1 1 1 
1 1 1 1 1 1 1 1 1 
1 1 1 1 1 1 1 1 1 
1 1 1 1 1 1 1 1 1 
1 1 1 1 1 1 1 1 1 
1 1 1 1 1 1 1 1 1 
1 1 1 1 1 1 1 1 1 
1 1 1 1 1 1 1 1 1 
1 1 1 1 1 1 1 1 1 
1 1 1 1 1 1 1 1 1 
1 1 1 1 1 1 1 1 1 
1 1 1 1 1 1 1 1 1 
1 1 1 1 1 1 1 1 1 
1 1 1 1 1 1 1 1 1 
1 1 1 1 1 1 1 1 1 
1 1 1 1 1 1 1 1 1 
1 1 1 1 1 1 1 1 1 
1 1 1 1 1 1 1 1 1 
1 1 1 1 1 1 1 1 1 
1 1 1 1 1 1 1 1 1 
1 1 1 1 1 1 1 1 1 
1 1 1 1 1 1 1 1 1 
1 1 1 1 1 1 1 1 1 
1 1 1 1 1 1 1 1 1 
1 1 1 1 1 1 1 1 1 
1 1 1 1 1 1 1 1 1 
1 1 1 1 1 1 1 1 1 
1 1 1 1 1 1 1 1 1 
1 1 1 1 1 1 1 1 1 
1 1 1 1 1 1 1 1 1 
1 1 1 1 1 1 1 1 1 
1 1 1 1 1 1 1 1 1 
1 1 1 1 1 1 1 1 1 
1 1 1 1 1 1 1 1 1 
1 1 1 1 1 1 1 1 1 
1 1 1 1 1 1 1 1 1 
1 1 1 1 1 1 1 1 1 
1 1 1 1 1 1 1 1 1 
1 1 1 1 1 1 1 1 1 
1 1 1 1 1 1 1 1 1 
1 1 1 1 1 1 1 1 1 
1 1 1 1 1 1 1 1 1 
1 1 1 1 1 1 1 1 1 
1 1 1 1 1 1 1 1 1 
1 1 1 1 1 1 1 1 1 
1 1 1 1 1 1 1 1 1 
1 1 1 1 1 1 1 1 1 
1 1 1 1 1 1 1 1 1 
1 1 1 1 1 1 1 1 1 
1 1 1 1 1 1 1 1 1 
1 1 1 1 1 1 1 1 1 
1 1 1 1 1 1 1 1 1 
1 1 1 1 1 1 1 1 1 
1 1 1 1 1 1 1 1 1 
1 1 1 1 1 1 1 1 1 
1 1 1 1 1 1 1 1 1 
1 1 1 1 1 1 1 1 1 
1 1 1 1 1 
NORMALS normals float
-0.012498 -0.012498 -0.999844 -0.00883849 -0.707079 -0.707079 -0.57735 -0.57735 -0.57735 
0.012498 -0.012498 -0.999844 0.00883849 -0.707079 -0.707079 0.999844 -0.012498 -0.012498 
-0.012499 0 -0.999922 -0.579756 -0.572509 -0.579756 -0.707107 0 -0.707107 
0 0 -1 0.012499 0 -0.999922 0.579756 -0.572509 -0.579756 
-0.579756 0.572509 -0.579756 -0.579756 0.572509 -0.579756 -0.012499 0 -0.999922 
0 0 -1 0.572509 -0.579756 -0.579756 0 -0.012499 -0.999922 
0.012498 -0.012498 -0.999844 0.00883849 -0.707079 -0.707079 0.999844 -0.012498 -0.012498 
-0.012498 0.012498 -0.999844 -0.999844 0.012498 -0.012498 0 0.012499 -0.999922 
0 0 -1 0.012499 0 -0.999922 0.579756 -0.572509 -0.579756 
-0.012498 0.999844 -0.012498 -0.572509 0.579756 -0.579756 -0.579756 0.572509 -0.579756 
-0.012499 0 -0.999922 0 0 -1 0.572509 -0.579756 -0.579756 
0 -0.012499 -0.999922 0.012498 -0.012498 -0.999844 0.00883849 -0.707079 -0.707079 
0.999844 -0.012498 -0.012498 -0.012499 0 -0.999922 -0.707107 0 -0.707107 
0 0 -1 0 0 -1 0.012499 0 -0.999922 
0.579756 -0.572509 -0.579756 -0.012499 0 -0.999922 -0.707107 0 -0.707107 
0 0 -1 0 0 -1 0 0 -1 
0.572509 -0.579756 -0.579756 0 -0.012499 -0.999922 0 -0.012499 -0.999922 
0 -0.707107 -0.707107 0 -0.012499 -0.999922 0 -0.999922 -0.012499 
0.012498 -0.012498 -0.999844 0.012498 -0.999844 -0.012498 0.999844 -0.012498 -0.012498 
-0.012498 0.012498 -0.999844 -0.999844 0.012498 -0.012498 0 0.012499 -0.999922 
0 0 -1 0 0 -1 0 0 -1 
0 0 -1 0 0 -1 0.012499 0 -0.999922 
0.711512 -0.702618 -0.0088939 -0.012498 0.999844 -0.012498 -0.702618 0.711512 -0.0088939 
-0.711512 0.702618 -0.0088939 -0.012499 0 -0.999922 0 0 -1 
0 0 -1 0 0 -1 0 0 -1 
0 0 -1 0.702618 -0.711512 -0.0088939 0 -0.012499 -0.999922 
0.012498 -0.012498 -0.999844 0.012498 -0.999844 -0.012498 0.999844 -0.012498 -0.012498 
-0.012498 0.012498 -0.999844 -0.999844 0.012498 -0.012498 0 0.012499 -0.999922 
0 0 -1 0 0 -1 0 0 -1 
0 0 -1 0 0 -1 0.012499 0 -0.999922 
0.999922 0 -0.012499 -0.012498 0.999844 -0.012498 -0.702618 0.711512 -0.0088939 
-0.711512 0.702618 -0.0088939 -0.012499 0 -0.999922 0 0 -1 
0 0 -1 0 0 -1 0 0 -1 
0.012499 0 -0.999922 0.999922 0 -0.012499 -0.012498 0.012498 -0.999844 
-0.999844 0.012498 -0.012498 0 0.012499 -0.999922 0 0 -1 
0 0 -1 0 0 -1 0.012499 0 -0.999922 
0.579756 -0.572509 -0.579756 -0.012498 0.999844 -0.012498 -0.572509 0.579756 -0.579756 
-0.579756 0.572509 -0.579756 -0.012499 0 -0.999922 0 0 -1 
0 0 -1 0 0 -1 0.572509 -0.579756 -0.579756 
0 -0.012499 -0.999922 0.012498 -0.012498 -0.999844 0.012498 -0.999844 -0.012498 
0.999844 -0.012498 -0.012498 -0.012499 0 -0.999922 -0.707107 0 -0.707107 
0 0 -1 0 0 -1 0 0 -1 
0 0 -1 0.012499 0 -0.999922 0.999922 0 -0.012499 
-0.012499 0 -0.999922 -0.999922 0 -0.012499 0 0 -1 
0 0 -1 0 0 -1 0 0 -1 
0.012499 0 -0.999922 0.999922 0 -0.012499 -0.012498 0.012498 -0.999844 
-0.999844 0.012498 -0.012498 0 0.012499 -0.999922 0 0 -1 
0 0 -1 0 0 -1 0.012499 0 -0.999922 
0.999922 0 -0.012499 -0.012498 0.999844 -0.012498 -0.572509 0.579756 -0.579756 
-0.579756 0.572509 -0.579756 -0.012499 0 -0.999922 0 0 -1 
0 0 -1 0.012499 0 -0.999922 0.999922 0 -0.012499 
-0.012498 0.012498 -0.999844 -0.999844 0.012498 -0.012498 0 0.012499 -0.999922 
0 0 -1 0.012499 0 -0.999922 0.999922 0 -0.012499 
-0.012498 0.999844 -0.012498 -0.702618 0.711512 -0.0088939 -0.711512 0.702618 -0.0088939 
-0.012499 0 -0.999922 0.012498 0.012498 -0.999844 0.999844 0.012498 -0.012498 
0 0.0126572 -0.99992 -0.99992 0.0126572 0 0.702646 0.71154 0 
0.707079 0.707079 -0.00883849 0 1 0 -0.012498 -0.012498 -0.999844 
-0.00883849 -0.707079 -0.707079 -0.999844 -0.012498 -0.012498 0.0126562 -0.0126562 -0.99984 
0.012499 -0.999922 0 0.999922 -0.012499 0 -0.012499 0 -0.999922 
-0.999922 0 -0.012499 0.0126572 0 -0.99992 1 0 0 
-0.012499 0 -0.999922 -0.999922 0 -0.012499 0.0126562 0.0126562 -0.99984 
0.999922 0.012499 0 0 0.0126572 -0.99992 -0.99992 0.0126572 0 
0.702646 0.71154 0 0.707107 0.707107 0 0 1 0 
-0.012498 -0.012498 -0.999844 -0.00883849 -0.707079 -0.707079 -0.707079 -0.00883849 -0.707079 
0 -0.707107 -0.707107 0 -0.707107 -0.707107 0.00883849 -0.707079 -0.707079 
0.00883849 -0.707079 -0.707079 0.999844 -0.012498 -0.012498 -0.579756 -0.572509 -0.579756 
-0.579756 -0.572509 -0.579756 0.582192 -0.574914 -0.574914 -0.707107 0 -0.707107 
-0.579756 -0.572509 -0.579756 -0.999922 0 -0.012499 0.572509 -0.579756 -0.579756 
0.572509 -0.579756 -0.579756 0.00883849 -0.707079 -0.707079 0.00883849 -0.707079 -0.707079 
0.707079 -0.00883849 -0.707079 -0.579756 0.572509 -0.579756 -0.57735 0.57735 -0.57735 
-0.57735 0.57735 -0.57735 0.582192 -0.574914 -0.574914 -0.57735 0.57735 -0.57735 
-0.579756 0.579756 -0.572509 0.572509 -0.579756 -0.579756 0.572509 -0.579756 -0.579756 
0.00883849 -0.707079 -0.707079 0.00883849 -0.707079 -0.707079 0.707079 -0.00883849 -0.707079 
-0.579756 0.579756 -0.572509 -0.579756 0.572509 -0.579756 -0.579756 0.572509 -0.579756 
0.582192 -0.574914 -0.574914 -0.707107 0 -0.707107 -0.707107 0 -0.707107 
0.572509 -0.579756 -0.579756 0.572509 -0.579756 -0.579756 0.00883849 -0.707079 -0.707079 
0.00883849 -0.707079 -0.707079 0.707079 -0.707079 -0.00883849 -0.707079 0.00883849 -0.707079 
-0.707079 0.00883849 -0.707079 0.702646 -0.71154 0 0.012499 -0.999922 0 
0.999922 -0.012499 0 -0.57735 0.57735 -0.57735 -0.579756 0.579756 -0.572509 
0.71154 -0.702646 0 -0.012499 0.999922 0 -0.702646 0.71154 0 
-0.71154 0.702646 0 0.702646 -0.71154 0 0.012499 -0.999922 0 
0.999922 -0.012499 0 -0.999922 0.012499 0 1 0 0 
-0.012499 0.999922 0 -0.702646 0.71154 0 -0.71154 0.702646 0 
0.582192 -0.574914 -0.574914 -0.999922 0.012499 0 0.57735 -0.57735 -0.57735 
0.57735 -0.57735 -0.57735 0.57735 -0.57735 -0.57735 -0.579756 0.579756 -0.572509 
-0.579756 0.572509 -0.579756 -0.579756 0.572509 -0.579756 0.579756 -0.579756 -0.572509 
0.711512 -0.0088939 -0.702618 -0.707079 0.00883849 -0.707079 -0.707079 0.00883849 -0.707079 
0.71154 0 -0.702646 -0.707079 0.707079 -0.00883849 -0.71154 0.702646 0 
0.71154 0 -0.702646 -0.999922 0.012499 0 0.71154 0 -0.702646 
-0.707107 0.707107 0 -0.579756 0.579756 -0.572509 -0.707107 0.707107 0 
0.71154 0 -0.702646 -0.707107 0.707107 0 -0.707107 0.707107 0 
0.71154 0 -0.702646 -0.012499 0.999922 0 -0.702646 0.71154 0 
-0.707079 0.707079 0.00883849 0.715971 0.00894964 -0.698072 -0.00883849 0.707079 0.707079 
0 0.71154 0.702646 0.012498 0.999844 0.012498 0 -0.707107 -0.707107 
0 -0.707107 -0.707107 -0.99984 -0.0126562 -0.0126562 0.99984 -0.0126562 -0.0126562 
-0.99992 0 0.0126572 0.702646 0 0.71154 0.711512 -0.0088939 0.702618 
-0.99992 0 0.0126572 0.71154 0 0.702646 0.702646 0 0.71154 
-0.99984 0.0126562 0.0126562 0.711512 0.0088939 0.702618 0.702618 0.0088939 0.711512 
0 0.707107 0.707107 0 0.71154 0.702646 0 -0.012499 -0.999922 
0 -0.999922 -0.012499 -0.572509 -0.579756 -0.579756 0.702618 -0.711512 -0.0088939 
-0.012498 -0.012498 -0.999844 -0.57735 -0.57735 -0.57735 -0.707079 -0.00883849 -0.707079 
0 0 -1 0.702618 -0.711512 -0.0088939 0 -0.012499 -0.999922 
0.012498 -0.012498 -0.999844 0.012498 -0.999844 -0.012498 0.999844 -0.012498 -0.012498 
-0.012499 0 -0.999922 -0.707107 0 -0.707107 0 0 -1 
0 0 -1 0.012499 0 -0.999922 0.999922 0 -0.012499 
-0.012499 0 -0.999922 -0.579756 -0.572509 -0.579756 0 -0.702646 -0.71154 
0 -0.702646 -0.71154 0.0088939 -0.702618 -0.711512 0.999922 0 -0.012499 
-0.012499 0 -0.999922 -0.579756 -0.572509 -0.579756 -0.707107 0 -0.707107 
-0.702646 0 -0.71154 0.582192 -0.574914 -0.574914 -0.579756 0.572509 -0.579756 
-0.579756 0.572509 -0.579756 -0.579756 -0.572509 -0.579756 0.572509 -0.579756 -0.579756 
0.572509 -0.579756 -0.579756 0 -0.707107 -0.707107 0 -0.707107 -0.707107 
0 -0.012499 -0.999922 0 -0.707107 -0.707107 0.012498 -0.012498 -0.999844 
0.012498 -0.999844 -0.012498 0.999844 -0.012498 -0.012498 -0.71154 0 -0.702646 
0.702646 0 -0.71154 0.012499 0 -0.999922 0.579756 -0.572509 -0.579756 
-0.579756 0.572509 -0.579756 -0.999922 0 -0.012499 0.574914 -0.574914 -0.582192 
0 -0.702646 -0.71154 0.572509 -0.579756 -0.579756 0 -0.012499 -0.999922 
0.012498 -0.012498 -0.999844 0.012498 -0.999844 -0.012498 0.999844 -0.012498 -0.012498 
-0.012498 0.012498 -0.999844 -0.999844 0.012498 -0.012498 -0.572509 0.579756 -0.579756 
0.702646 0 -0.71154 0.012499 0 -0.999922 0.999922 0 -0.012499 
-0.012498 0.999844 -0.012498 -0.702618 0.711512 -0.0088939 -0.579756 0.572509 -0.579756 
-0.711512 0.702618 -0.0088939 0.574914 -0.574914 -0.582192 0.0088939 -0.702618 -0.711512 
0.999922 0 -0.012499 -0.707107 0 -0.707107 -0.999922 0 -0.012499 
0.582192 -0.574914 -0.574914 -0.707107 0 -0.707107 -0.999922 0 -0.012499 
0.574914 -0.582192 -0.574914 0.0088939 -0.711512 -0.702618 0.999922 -0.012499 0 
-0.0126562 0.0126562 -0.99984 -0.999922 0.012499 0 -0.574914 0.582192 -0.574914 
0.582192 -0.574914 -0.574914 -0.012499 0.999922 0 0 1 0 
0 1 0 -0.702646 0.71154 0 -0.71154 0.702646 0 
0.574914 -0.582192 -0.574914 0.012499 -0.999922 0 0.999922 -0.012499 0 
-0.999922 0.012499 0 0.582192 -0.574914 -0.574914 -0.012499 0.999922 0 
-0.574914 0.582192 -0.574914 -0.582192 0.574914 -0.574914 0.572509 -0.579756 -0.579756 
0.572509 -0.579756 -0.579756 0.012498 -0.012498 -0.999844 0.012498 -0.999844 -0.012498 
0.999844 -0.012498 -0.012498 -0.71154 0 -0.702646 0.579756 -0.572509 -0.579756 
0.711512 -0.702618 -0.0088939 -0.579756 0.572509 -0.579756 -0.999922 0 -0.012499 
0.702618 -0.0088939 -0.711512 0.702618 -0.711512 -0.0088939 0 -0.012499 -0.999922 
0 -0.999922 -0.012499 0 -0.012499 -0.999922 0 -0.999922 -0.012499 
0.012498 -0.012498 -0.999844 0.012498 -0.999844 -0.012498 0.999844 -0.012498 -0.012498 
-0.707079 0.00883849 -0.707079 -0.999844 0.012498 -0.012498 0.702646 0 -0.71154 
0 0 -1 0 0 -1 0.012499 0 -0.999922 
0.711512 -0.702618 -0.0088939 -0.012498 0.999844 -0.012498 -0.574914 0.582192 -0.574914 
-0.582192 0.574914 -0.574914 0.702646 0 -0.71154 0 0 -1 
0 0 -1 0 0 -1 0.702618 -0.711512 -0.0088939 
0 -0.012499 -0.999922 0.0126562 -0.0126562 -0.99984 0.012499 -0.999922 0 
0.999922 -0.012499 0 -0.999922 0.012499 0 0.702646 0 -0.71154 
0 0 -1 0 0 -1 0 0 -1 
0 0 -1 0.0126572 0 -0.99992 0.71154 -0.702646 0 
-0.012499 0.999922 0 -0.574914 0.582192 0.574914 -0.579756 0.579756 0.572509 
-0.582192 0.574914 0.574914 0.702646 0 -0.71154 0 0 -1 
0 0 -1 0 0 -1 0 0 -1 
0 0 -1 0.702618 -0.711512 -0.0088939 0 -0.012499 -0.999922 
0.0126562 -0.0126562 -0.99984 0.012499 -0.999922 0 0.999922 -0.012499 0 
-0.999844 0.012498 0.012498 0.702646 0 -0.71154 0 0 -1 
0 0 -1 0 0 -1 0 0 -1 
0 0 -1 0 0 -1 0.0126572 0 -0.99992 
0.71154 -0.702646 0 -0.012498 0.999844 0.012498 0 0.999922 0.012499 
0 0.707107 0.707107 -0.00883849 0.707079 0.707079 -0.572509 0.579756 0.579756 
-0.567607 0.582161 0.582161 -0.584627 0.577319 0.570012 0.6981 0 -0.716 
0 0 -1 0 0 -1 0 0 -1 
0 0 -1 0 0 -1 0 0 -1 
0 0 -1 0.702618 -0.711512 -0.0088939 0 -0.012499 -0.999922 
0.0126562 -0.0126562 -0.99984 0.012499 -0.999922 0 0.999922 -0.012499 0 
-0.012498 -0.012498 -0.999844 -0.012498 -0.999844 -0.012498 -0.707079 -0.707079 -0.00883849 
0.0126562 -0.0126562 -0.99984 0.012499 -0.999922 0 0.999922 -0.012499 0 
-0.999922 0.012499 0 -0.0126562 0.0126562 -0.99984 0 0.0126572 -0.99992 
0 0 -1 0 0 -1 0 0 -1 
0 0 -1 0 0 -1 0 0 -1 
0 0 -1 0.0126572 0 -0.99992 0.0126572 -0.99992 0 
-0.0126562 -0.0126562 -0.99984 -0.707107 -0.707107 0 -0.012499 -0.999922 0 
0 0 -1 0.0126572 0 -0.99992 1 0 0 
-0.012499 0.999922 0 -0.702646 0.71154 0 -0.711512 0.702618 -0.0088939 
-0.012499 0 -0.999922 0 0 -1 0 0 -1 
0 0 -1 0 0 -1 0 0 -1 
0 0 -1 0 0 -1 0 -0.999922 -0.012499 
0 -0.012499 -0.999922 0 0 -1 0 0 -1 
0.0126572 0 -0.99992 1 0 0 -0.0126562 0.0126562 -0.99984 
-0.999922 0.012499 0 0 0.0126572 -0.99992 0 0.0126572 -0.99992 
0 0.0126572 -0.99992 0 0.0126572 -0.99992 0 0.0126572 -0.99992 
0 0.0126572 -0.99992 0 0.0126572 -0.99992 0 0.0126572 -0.99992 
0 0.0126572 -0.99992 0 0 -1 0.0126572 0 -0.99992 
1 0 0 -0.012499 0.999922 0 0 1 0 
0 1 0 0 1 0 0 1 0 
0 1 0 0 1 0 0 1 0 
0 1 0 -0.702646 0.71154 0 -0.711512 0.702618 -0.0088939 
-0.0088939 -0.702618 -0.711512 0.0126562 0.0126562 -0.99984 0.999922 0.012499 0 
-0.99984 0.0126562 0.0126562 0.707107 0.707107 0 0.702618 0.711512 0.0088939 
0 0.707107 0.707107 0 0.702646 0.71154 0 0 1 
0 0.012499 0.999922 -0.57735 -0.57735 -0.57735 -0.00883849 -0.707079 -0.707079 
-0.57735 -0.57735 -0.57735 0.0088939 -0.711512 -0.702618 0.707107 -0.707107 0 
-0.707079 -0.00883849 -0.707079 -0.57735 -0.57735 -0.57735 -0.707079 -0.00883849 -0.707079 
0.702646 -0.71154 0 0.012499 -0.999922 0 0.999922 -0.012499 0 
-0.707107 0 -0.707107 -0.707107 0 -0.707107 1 0 0 
-0.579756 -0.572509 -0.579756 -0.579756 -0.572509 -0.579756 0.582192 -0.574914 -0.574914 
-0.707107 0 -0.707107 -0.579756 -0.572509 -0.579756 -0.707107 0 -0.707107 
0.572509 -0.579756 -0.579756 0.572509 -0.579756 -0.579756 0 -0.707107 -0.707107 
0 -0.707107 -0.707107 0.00883849 -0.707079 -0.707079 0.00883849 -0.707079 -0.707079 
0.57735 -0.57735 -0.57735 -0.579756 0.572509 -0.579756 -0.579756 0.572509 -0.579756 
-0.579756 0.572509 -0.579756 0.579756 -0.579756 -0.572509 0.579756 -0.579756 -0.572509 
-0.707079 0.00883849 -0.707079 -0.707079 0.00883849 -0.707079 0.57735 -0.57735 -0.57735 
0.57735 -0.57735 -0.57735 0.57735 -0.57735 -0.57735 -0.707079 0.707079 -0.00883849 
-0.71154 0.702646 0 0.579756 -0.579756 -0.572509 0.711512 -0.0088939 -0.702618 
-0.999922 0.012499 0 0.71154 0 -0.702646 -0.012499 0.999922 0 
-0.702646 0.71154 0 -0.71154 0.702646 0 0.582192 -0.574914 -0.574914 
-1 0 0 0.572509 -0.579756 -0.579756 0.572509 -0.579756 -0.579756 
0.00883849 -0.707079 -0.707079 0.00883849 -0.707079 -0.707079 0.707079 -0.00883849 -0.707079 
-0.999844 0.012498 0.012498 0.582192 -0.574914 -0.574914 -0.00883849 0.707079 0.707079 
-0.0088939 0.711512 0.702618 -0.572509 0.579756 0.579756 -0.574914 0.582192 0.574914 
-0.579756 0.579756 0.572509 0.57735 -0.57735 -0.57735 0.57735 -0.57735 -0.57735 
0.57735 -0.57735 -0.57735 -0.012499 0.999922 0 -0.702646 0.71154 0 
-0.71154 0.702646 0 0.579756 -0.579756 -0.572509 0.579756 -0.579756 -0.572509 
-0.999922 0.012499 0 0.57735 -0.57735 -0.57735 0.57735 -0.57735 -0.57735 
0.57735 -0.57735 -0.57735 -0.579756 0.579756 -0.572509 -0.579756 0.572509 -0.579756 
-0.579756 0.572509 -0.579756 0.579756 -0.579756 -0.572509 0.999922 -0.012499 0 
-0.707079 0.00883849 -0.707079 -0.707079 0.00883849 -0.707079 0.71154 -0.702646 0 
-0.707079 0.707079 -0.00883849 -0.71154 0.702646 0 0.702646 -0.71154 0 
0 -1 0 0 -1 0 0.012499 -0.999922 0 
0.999922 -0.012499 0 -0.999922 0.012499 0 0.711512 -0.702618 0.0088939 
-0.579756 0.579756 -0.572509 -0.57735 0.57735 -0.57735 -0.57735 0.57735 -0.57735 
0.707079 -0.707079 0.00883849 0.711512 -0.0088939 0.702618 0.707079 -0.00883849 0.707079 
-0.57735 0.57735 -0.57735 -0.579756 0.579756 -0.572509 0.582192 -0.574914 0.574914 
0.579756 -0.572509 0.579756 -0.012499 0.999922 0 -0.702646 0.71154 0 
-0.707079 0.707079 0.00883849 0.572509 -0.579756 0.579756 0.012498 -0.999844 0.012498 
0.711512 -0.0088939 0.702618 0.707079 -0.00883849 0.707079 -0.00883849 0.707079 0.707079 
-0.00883849 0.707079 0.707079 0 0.707107 0.707107 0 0.707107 0.707107 
0 0.707107 0.707107 0 0.707107 0.707107 -0.572509 0.579756 0.579756 
-0.572509 0.579756 0.579756 -0.579756 0.572509 0.579756 0.582192 -0.574914 0.574914 
0.579756 -0.572509 0.579756 -0.999844 0.012498 0.012498 0.572509 -0.579756 0.579756 
0.012498 -0.999844 0.012498 0.711512 -0.0088939 0.702618 0.707079 -0.00883849 0.707079 
0 -0.999922 0.012499 -0.99984 -0.0126562 0.0126562 0.711512 -0.0088939 0.702618 
0.702618 -0.0088939 0.711512 -0.00883849 0.707079 0.707079 -0.0088939 0.711512 0.702618 
-0.572509 0.579756 0.579756 -0.574914 0.582192 0.574914 -0.579756 0.572509 0.579756 
0.582192 -0.574914 0.574914 0.579756 -0.572509 0.579756 -0.579756 -0.579756 0.572509 
-0.574914 -0.574914 0.582192 0.71154 0 0.702646 0.702646 0 0.71154 
-0.999844 0.012498 0.012498 0.574914 -0.574914 0.582192 0 -0.99992 0.0126572 
-0.574914 -0.574914 0.582192 0.71154 0 0.702646 0.707107 0 0.707107 
-0.00883849 0.707079 0.707079 -0.0088939 0.711512 0.702618 0 0.707107 0.707107 
0 0.71154 0.702646 0 0.707107 0.707107 0 0.71154 0.702646 
0 0.707107 0.707107 0 0.71154 0.702646 0 0.707107 0.707107 