# vtk DataFile Version 3.0
vtk output
ASCII
DATASET POLYDATA
POINTS 4836 float
127 136 27.0114 127 135.011 28 126.011 136 28 
128 136 27.0114 128 135.011 28 129 136 27.0114 
129 135.011 28 130 136 27.0114 130 135.011 28 
131 136 27.0114 131 135.011 28 132 136 27.0114 
132 135.011 28 133 136 27.0114 133 135.011 28 
134 136 27.0114 134 135.011 28 135 136 27.0114 
135 135.011 28 136 136 27.0114 136 135.011 28 
136.989 136 28 126 137 27.0114 126 136.011 28 
125.011 137 28 127 137 27.0114 128 137 27.0114 
129 137 27.0114 130 137 27.0114 131 137 27.0114 
132 137 27.0114 133 137 27.0114 134 137 27.0114 
135 137 27.0114 136 137 27.0114 136.989 137 28 
125 138 27.0114 125 137.011 28 124.011 138 28 
126 138 27.0114 127 138 27.0114 128 138 27.0114 
129 138 27.0114 130 138 27.0114 131 138 27.0114 
132 138 27.0114 133 138 27.0114 134 138 27.0114 
135 138 27.0114 136 138 27.0114 137 137.011 28 
137 138 27.0114 138 138 27.0114 138 137.011 28 
138.989 138 28 125 139 27.0114 124.011 139 28 
126 139 27.0114 127 139 27.0114 128 139 27.0114 
129 139 27.0114 130 139 27.0114 131 139 27.0114 
132 139 27.0114 133 139 27.0114 134 139 27.0114 
135 139 27.0114 136 139 27.0114 137 139 27.0114 
138 139 27.0114 138.989 139 28 125 140 27.0114 
124.011 140 28 126 140 27.0114 127 140 27.0114 
128 140 27.0114 129 140 27.0114 130 140 27.0114 
131 140 27.0114 132 140 27.0114 133 140 27.0114 
134 140 27.0114 135 140 27.0114 136 140 27.0114 
137 140 27.0114 138 140 27.0114 138.989 140 28 
125 141 27.0114 124.011 141 28 126 141 27.0114 
127 141 27.0114 128 141 27.0114 129 141 27.0114 
130 141 27.0114 131 141 27.0114 132 141 27.0114 
133 141 27.0114 134 141 27.0114 135 141 27.0114 
136 141 27.0114 137 141 27.0114 138 141 27.0114 
138.989 141 28 125 142 27.0114 124.011 142 28 
126 142 27.0114 127 142 27.0114 128 142 27.0114 
129 142 27.0114 130 142 27.0114 131 142 27.0114 
132 142 27.0114 133 142 27.0114 134 142 27.0114 
135 142 27.0114 136 142 27.0114 137 142 27.0114 
138 142 27.0114 138.989 142 28 125 143 27.0114 
124.011 143 28 126 143 27.0114 127 143 27.0114 
128 143 27.0114 129 143 27.0114 130 143 27.0114 
131 143 27.0114 132 143 27.0114 133 143 27.0114 
134 143 27.0114 135 143 27.0114 136 143 27.0114 
137 143 27.0114 137.989 143 28 138 142.989 28 
125 143.989 28 126 143.989 28 126.011 144 28 
127 144 27.0114 128 144 27.0114 129 144 27.0114 
130 144 27.0114 131 144 27.0114 132 144 27.0114 
133 144 27.0114 134 144 27.0114 135 144 27.0114 
136 144 27.0114 136.989 144 28 137 143.989 28 
127 145 27.0114 126.011 145 28 128 145 27.0114 
129 145 27.0114 130 145 27.0114 131 145 27.0114 
132 145 27.0114 133 145 27.0114 134 145 27.0114 
135 145 27.0114 135.989 145 28 136 144.989 28 
127 146 27.0114 126.011 146 28 128 146 27.0114 
129 146 27.0114 130 146 27.0114 131 146 27.0114 
132 146 27.0114 133 146 27.0114 134 146 27.0114 
134.989 146 28 135 145.989 28 127 147 27.0114 
126.011 147 28 128 147 27.0114 129 147 27.0114 
130 147 27.0114 131 147 27.0114 132 147 27.0114 
133 147 27.0114 133.989 147 28 134 146.989 28 
127 147.989 28 128 147.989 28 129 147.989 28 
130 147.989 28 131 147.989 28 132 147.989 28 
133 147.989 28 115 135 28.0114 115 134.011 29 
114.011 135 29 116 135 28.0114 116 134.011 29 
117 135 28.0114 117 134.011 29 118 135 28.0114 
118 134.011 29 119 135 28.0114 119 134.011 29 
120 135 28.0114 120 134.011 29 120.989 135 29 
130 135 28.0114 130 134.011 29 129.011 135 29 
131 135 28.0114 131 134.011 29 132 135 28.0114 
132 134.011 29 132.989 135 29 115 135.989 29 
116 135.989 29 117 135.989 29 118 135.989 29 
119 135.989 29 119.011 136 29 120 136 28.0114 
120.989 136 29 126 136 28.0114 126 135.011 29 
125.011 136 29 127 135.011 29 128 135.011 29 
129 135.011 29 133 135.011 29 134 135.011 29 
135 135.011 29 136 135.011 29 136.989 136 29 
120 137 28.0114 119.011 137 29 121 136.011 29 
121 137 28.0114 122 137 28.0114 122 136.011 29 
123 137 28.0114 123 136.011 29 124 137 28.0114 
124 136.011 29 125 137 28.0114 125 136.011 29 
136.989 137 29 120 137.989 29 121 137.989 29 
122 137.989 29 123 137.989 29 123.011 138 29 
124 138 28.0114 137 137.011 29 138 137.011 29 
138.989 138 29 124 139 28.0114 123.011 139 29 
138.989 139 29 124 140 28.0114 123.011 140 29 
138.989 140 29 124 141 28.0114 123.011 141 29 
138.989 141 29 124 142 28.0114 123.011 142 29 
138.989 142 29 124 143 28.0114 123.011 143 29 
138 143 28.0114 138.989 143 29 124 144 28.0114 
123.011 144 29 125 143.989 29 124.989 144 29 
126 144 28.0114 125.011 144 29 136.989 144 29 
137 143.989 29 138 143.989 29 116 145 28.0114 
116 144.011 29 115.011 145 29 117 145 28.0114 
117 144.011 29 118 145 28.0114 118 144.011 29 
118.989 145 29 120 145 28.0114 120 144.011 29 
119.011 145 29 121 145 28.0114 121 144.011 29 
122 145 28.0114 122 144.011 29 123 145 28.0114 
123 144.011 29 124 145 28.0114 124.989 145 29 
126 145 28.0114 125.011 145 29 136 145 28.0114 
136.989 145 29 116 145.989 29 117 145.989 29 
117.011 146 29 118 146 28.0114 118.989 146 29 
120 146 28.0114 119.011 146 29 120.989 146 29 
121 145.989 29 122 145.989 29 123 145.989 29 
124 145.989 29 126 146 28.0114 125.011 146 29 
134.989 146 29 135 145.989 29 136 145.989 29 
118 146.989 29 120 146.989 29 126 146.989 29 
126.011 147 29 134 147 28.0114 134.989 147 29 
127 147.989 29 128 147.989 29 129 147.989 29 
130 147.989 29 131 147.989 29 132 147.989 29 
133 147.989 29 134 147.989 29 120 131 29.0114 
120 130.011 30 119.011 131 30 120.989 131 30 
119 132 29.0114 119 131.011 30 118.011 132 30 
120 132 29.0114 121 131.011 30 121 132 29.0114 
122 132 29.0114 122 131.011 30 122.989 132 30 
118 133 29.0114 118 132.011 30 117.011 133 30 
119 133 29.0114 120 133 29.0114 121 133 29.0114 
122 133 29.0114 122.989 133 30 115 134 29.0114 
115 133.011 30 114.011 134 30 116 134 29.0114 
116 133.011 30 117 134 29.0114 117 133.011 30 
118 134 29.0114 119 134 29.0114 120 134 29.0114 
121 134 29.0114 122 134 29.0114 123 133.011 30 
123 134 29.0114 124 134 29.0114 124 133.011 30 
124.989 134 30 131 134 29.0114 131 133.011 30 
130.011 134 30 132 134 29.0114 132 133.011 30 
132.989 134 30 114 135 29.0114 114 134.011 30 
113.011 135 30 121 135 29.0114 122 135 29.0114 
123 135 29.0114 124 135 29.0114 124.989 135 30 
130 134.011 30 129.011 135 30 132.989 135 30 
113 136 29.0114 113 135.011 30 112.011 136 30 
114 136 29.0114 115 136 29.0114 116 136 29.0114 
117 136 29.0114 118 136 29.0114 119 136 29.0114 
121 136 29.0114 122 136 29.0114 123 136 29.0114 
124 136 29.0114 125 135.011 30 125 136 29.0114 
126 135.011 30 127 135.011 30 128 135.011 30 
129 135.011 30 133 135.011 30 134 135.011 30 
135 135.011 30 136 135.011 30 136.989 136 30 
112 137 29.0114 112 136.011 30 111.011 137 30 
113 137 29.0114 114 137 29.0114 115 137 29.0114 
116 137 29.0114 117 137 29.0114 118 137 29.0114 
119 137 29.0114 136.989 137 30 109 138 29.0114 
109 137.011 30 108.011 138 30 110 138 29.0114 
110 137.011 30 111 138 29.0114 111 137.011 30 
112 138 29.0114 113 138 29.0114 114 138 29.0114 
115 138 29.0114 116 138 29.0114 117 138 29.0114 
118 138 29.0114 119 138 29.0114 120 138 29.0114 
121 138 29.0114 122 138 29.0114 123 138 29.0114 
137 137.011 30 138 137.011 30 139 138 29.0114 
139 137.011 30 140 138 29.0114 140 137.011 30 
141 138 29.0114 141 137.011 30 142 138 29.0114 
142 137.011 30 142.989 138 30 109 139 29.0114 
108.011 139 30 110 139 29.0114 111 139 29.0114 
112 139 29.0114 113 139 29.0114 114 139 29.0114 
115 139 29.0114 116 139 29.0114 117 139 29.0114 
118 139 29.0114 119 139 29.0114 120 139 29.0114 
121 139 29.0114 122 139 29.0114 123 139 29.0114 
139 139 29.0114 140 139 29.0114 141 139 29.0114 
142 139 29.0114 142.989 139 30 109 139.989 30 
110 139.989 30 110.011 140 30 111 140 29.0114 
112 140 29.0114 113 140 29.0114 114 140 29.0114 
115 140 29.0114 116 140 29.0114 117 140 29.0114 
118 140 29.0114 119 140 29.0114 120 140 29.0114 
121 140 29.0114 122 140 29.0114 123 140 29.0114 
139 140 29.0114 140 140 29.0114 141 140 29.0114 
142 140 29.0114 142.989 140 30 111 141 29.0114 
110.011 141 30 112 141 29.0114 113 141 29.0114 
114 141 29.0114 115 141 29.0114 116 141 29.0114 
117 141 29.0114 118 141 29.0114 119 141 29.0114 
120 141 29.0114 121 141 29.0114 122 141 29.0114 
123 141 29.0114 139 141 29.0114 140 141 29.0114 
141 141 29.0114 141.989 141 30 142 140.989 30 
111 141.989 30 112 141.989 30 112.011 142 30 
113 142 29.0114 114 142 29.0114 115 142 29.0114 
116 142 29.0114 117 142 29.0114 118 142 29.0114 
119 142 29.0114 120 142 29.0114 121 142 29.0114 
122 142 29.0114 123 142 29.0114 139 142 29.0114 
140 142 29.0114 140.989 142 30 141 141.989 30 
113 143 29.0114 112.011 143 30 114 143 29.0114 
115 143 29.0114 116 143 29.0114 117 143 29.0114 
118 143 29.0114 119 143 29.0114 120 143 29.0114 
121 143 29.0114 122 143 29.0114 123 143 29.0114 
139 143 29.0114 140 143 29.0114 140.989 143 30 
113 143.989 30 114 143.989 30 114.011 144 30 
115 144 29.0114 116 144 29.0114 117 144 29.0114 
118 144 29.0114 119 144 29.0114 120 144 29.0114 
121 144 29.0114 122 144 29.0114 123 144 29.0114 
125 144 29.0114 137 144 29.0114 138 144 29.0114 
139 144 29.0114 140 144 29.0114 140.989 144 30 
115 145 29.0114 114.011 145 30 119 145 29.0114 
125 145 29.0114 137 145 29.0114 138 145 29.0114 
139 145 29.0114 140 145 29.0114 140.989 145 30 
115 145.989 30 116 145.989 30 117 146 29.0114 
116.011 146 30 119 146 29.0114 121 146 29.0114 
122 146 29.0114 123 146 29.0114 124 146 29.0114 
125 146 29.0114 135 146 29.0114 136 146 29.0114 
137 146 29.0114 138 146 29.0114 139 146 29.0114 
140 146 29.0114 140.989 146 30 117 147 29.0114 
116.011 147 30 118 147 29.0114 119 147 29.0114 
120 147 29.0114 121 147 29.0114 122 147 29.0114 
123 147 29.0114 124 147 29.0114 125 147 29.0114 
126 147 29.0114 135 147 29.0114 136 147 29.0114 
137 147 29.0114 138 147 29.0114 139 147 29.0114 
139.989 147 30 140 146.989 30 117 147.989 30 
118 147.989 30 119 147.989 30 120 147.989 30 
120.011 148 30 121 148 29.0114 122 148 29.0114 
123 148 29.0114 124 148 29.0114 124.989 148 30 
125 147.989 30 126 147.989 30 127 148 29.0114 
[...]
POINT_DATA 4836
SCALARS scalars float
LOOKUP_TABLE default
1 1 1 1 1 1 1 1 1 
1 1 1 1 1 1 1 1 1 
1 1 1 1 1 1 1 1 1 
1 1 1 1 1 1 1 1 1 
1 1 1 1 1 1 1 1 1 
1 1 1 1 1 1 1 1 1 
1 1 1 1 1 1 1 1 1 
1 1 1 1 1 1 1 1 1 
1 1 1 1 1 1 1 1 1 
1 1 1 1 1 1 1 1 1 
1 1 1 1 1 1 1 1 1 
1 1 1 1 1 1 1 1 1 
1 1 1 1 1 1 1 1 1 
1 1 1 1 1 1 1 1 1 
1 1 1 1 1 1 1 1 1 
1 1 1 1 1 1 1 1 1 
1 1 1 1 1 1 1 1 1 
1 1 1 1 1 1 1 1 1 
1 1 1 1 1 1 1 1 1 
1 1 1 1 1 1 1 1 1 
1 1 1 1 1 1 1 1 1 
1 1 1 1 1 1 1 1 1 
1 1 1 1 1 1 1 1 1 
1 1 1 1 1 1 1 1 1 
1 1 1 1 1 1 1 1 1 
1 1 1 1 1 1 1 1 1 
1 1 1 1 1 1 1 1 1 
1 1 1 1 1 1 1 1 1 
1 1 1 1 1 1 1 1 1 
1 1 1 1 1 1 1 1 1 
1 1 1 1 1 1 1 1 1 
1 1 1 1 1 1 1 1 1 
1 1 1 1 1 1 1 1 1 
1 1 1 1 1 1 1 1 1 
1 1 1 1 1 1 1 1 1 
1 1 1 1 1 1 1 1 1 
1 1 1 1 1 1 1 1 1 
1 1 1 1 1 1 1 1 1 
1 1 1 1 1 1 1 1 1 
1 1 1 1 1 1 1 1 1 
1 1 1 1 1 1 1 1 1 
1 1 1 1 1 1 1 1 1 
1 1 1 1 1 1 1 1 1 
1 1 1 1 1 1 1 1 1 
1 1 1 1 1 1 1 1 1 
1 1 1 1 1 1 1 1 1 
1 1 1 1 1 1 1 1 1 
1 1 1 1 1 1 1 1 1 
1 1 1 1 1 1 1 1 1 
1 1 1 1 1 1 1 1 1 
1 1 1 1 1 1 1 1 1 
1 1 1 1 1 1 1 1 1 
1 1 1 1 1 1 1 1 1 
1 1 1 1 1 1 1 1 1 
1 1 1 1 1 1 1 1 1 
1 1 1 1 1 1 1 1 1 
1 1 1 1 1 1 1 1 1 
1 1 1 1 1 1 1 1 1 
1 1 1 1 1 1 1 1 1 
1 1 1 1 1 1 1 1 1 
1 1 1 1 1 1 1 1 1 
1 1 1 1 1 1 1 1 1 
1 1 1 1 1 1 1 1 1 
1 1 1 1 1 1 1 1 1 
1 1 1 1 1 1 1 1 1 
1 1 1 1 1 1 1 1 1 
1 1 1 1 1 1 1 1 1 
1 1 1 1 1 1 1 1 1 
1 1 1 1 1 1 1 1 1 
1 1 1 1 1 1 1 1 1 
1 1 1 1 1 1 1 1 1 
1 1 1 1 1 1 1 1 1 
1 1 1 1 1 1 1 1 1 
1 1 1 1 1 1 1 1 1 
1 1 1 1 1 1 1 1 1 
1 1 1 1 1 1 1 1 1 
1 1 1 1 1 1 1 1 1 
1 1 1 1 1 1 1 1 1 
1 1 1 1 1 1 1 1 1 
1 1 1 1 1 1 1 1 1 
1 1 1 1 1 1 1 1 1 
1 1 1 1 1 1 1 1 1 
1 1 1 1 1 1 1 1 1 
1 1 1 1 1 1 1 1 1 
1 1 1 1 1 1 1 1 1 
1 1 1 1 1 1 1 1 1 
1 1 1 1 1 1 1 1 1 
1 1 1 1 1 1 1 1 1 
1 1 1 1 1 1 1 1 1 
1 1 1 1 1 1 1 1 1 
1 1 1 1 1 1 1 1 1 
1 1 1 1 1 1 1 1 1 
1 1 1 1 1 1 1 1 1 
1 1 1 1 1 1 1 1 1 
1 1 1 1 1 1 1 1 1 
1 1 1 1 1 1 1 1 1 
1 1 1 1 1 1 1 1 1 
1 1 1 1 1 1 1 1 1 
1 1 1 1 1 1 1 1 1 
1 1 1 1 1 1 1 1 1 
1 1 1 1 1 1 1 1 1 
1 1 1 1 1 1 1 1 1 
1 1 1 1 1 1 1 1 1 
1 1 1 1 1 1 1 1 1 
1 1 1 1 1 1 1 1 1 
1 1 1 1 1 1 1 1 1 
1 1 1 1 1 1 1 1 1 
1 1 1 1 1 1 1 1 1 
1 1 1 1 1 1 1 1 1 
1 1 1 1 1 1 1 1 1 
1 1 1 1 1 1 1 1 1 
1 1 1 1 1 1 1 1 1 
1 1 1 1 1 1 1 1 1 
1 1 1 1 1 1 1 1 1 
1 1 1 1 1 1 1 1 1 
1 1 1 1 1 1 1 1 1 
1 1 1 1 1 1 1 1 1 
1 1 1 1 1 1 1 1 1 
1 1 1 1 1 1 1 1 1 
1 1 1 1 1 1 1 1 1 
1 1 1 1 1 1 1 1 1 
1 1 1 1 1 1 1 1 1 
1 1 1 1 1 1 1 1 1 
1 1 1 1 1 1 1 1 1 
1 1 1 1 1 1 1 1 1 
1 1 1 1 1 1 1 1 1 
1 1 1 1 1 1 1 1 1 
1 1 1 1 1 1 1 1 1 
1 1 1 1 1 1 1 1 1 
1 1 1 1 1 1 1 1 1 
1 1 1 1 1 1 1 1 1 
1 1 1 1 1 1 1 1 1 
1 1 1 1 1 1 1 1 1 
1 1 1 1 1 1 1 1 1 
1 1 1 1 1 1 1 1 1 
1 1 1 1 1 1 1 1 1 
1 1 1 1 1 1 1 1 1 
1 1 1 1 1 1 1 1 1 
1 1 1 1 1 1 1 1 1 
1 1 1 1 1 1 1 1 1 
1 1 1 1 1 1 1 1 1 
1 1 1 1 1 1 1 1 1 
1 1 1 1 1 1 1 1 1 
1 1 1 1 1 1 1 1 1 
1 1 1 1 1 1 1 1 1 
1 1 1 1 1 1 1 1 1 
1 1 1 1 1 1 1 1 1 
1 1 1 1 1 1 1 1 1 
1 1 1 1 1 1 1 1 1 
1 1 1 1 1 1 1 1 1 
1 1 1 1 1 1 1 1 1 
1 1 1 1 1 1 1 1 1 
1 1 1 1 1 1 1 1 1 
1 1 1 1 1 1 1 1 1 
1 1 1 1 1 1 1 1 1 
1 1 1 1 1 1 1 1 1 
1 1 1 1 1 1 1 1 1 
1 1 1 1 1 1 1 1 1 
1 1 1 1 1 1 1 1 1 
1 1 1 1 1 1 1 1 1 
1 1 1 1 1 1 1 1 1 
1 1 1 1 1 1 1 1 1 
1 1 1 1 1 1 1 1 1 
1 1 1 1 1 1 1 1 1 
1 1 1 1 1 1 1 1 1 
1 1 1 1 1 1 1 1 1 
1 1 1 1 1 1 1 1 1 
1 1 1 1 1 1 1 1 1 
1 1 1 1 1 1 1 1 1 
1 1 1 1 1 1 1 1 1 
1 1 1 1 1 1 1 1 1 
1 1 1 1 1 1 1 1 1 
1 1 1 1 1 1 1 1 1 
1 1 1 1 1 1 1 1 1 
1 1 1 1 1 1 1 1 1 
1 1 1 1 1 1 1 1 1 
1 1 1 1 1 1 1 1 1 
1 1 1 1 1 1 1 1 1 
1 1 1 1 1 1 1 1 1 
1 1 1 1 1 1 1 1 1 
1 1 1 1 1 1 1 1 1 
1 1 1 1 1 1 1 1 1 
1 1 1 1 1 1 1 1 1 
1 1 1 1 1 1 1 1 1 
1 1 1 1 1 1 1 1 1 
1 1 1 1 1 1 1 1 1 
1 1 1 1 1 1 1 1 1 
1 1 1 1 1 1 1 1 1 
1 1 1 1 1 1 1 1 1 
1 1 1 1 1 1 1 1 1 
1 1 1 1 1 1 1 1 1 
1 1 1 1 1 1 1 1 1 
1 1 1 1 1 1 1 1 1 
1 1 1 1 1 1 1 1 1 
1 1 1 1 1 1 1 1 1 
1 1 1 1 1 1 1 1 1 
1 1 1 1 1 1 1 1 1 
1 1 1 1 1 1 1 1 1 
1 1 1 1 1 1 1 1 1 
1 1 1 1 1 1 1 1 1 
1 1 1 1 1 1 1 1 1 
1 1 1 1 1 1 1 1 1 
1 1 1 1 1 1 1 1 1 
1 1 1 1 1 1 1 1 1 
1 1 1 1 1 1 1 1 1 
1 1 1 1 1 1 1 1 1 
1 1 1 1 1 1 1 1 1 
1 1 1 1 1 1 1 1 1 
1 1 1 1 1 1 1 1 1 
1 1 1 1 1 1 1 1 1 
1 1 1 1 1 1 1 1 1 
1 1 1 1 1 1 1 1 1 
1 1 1 1 1 1 1 1 1 
1 1 1 1 1 1 1 1 1 
1 1 1 1 1 1 1 1 1 
1 1 1 1 1 1 1 1 1 
1 1 1 1 1 1 1 1 1 
1 1 1 1 1 1 1 1 1 
1 1 1 1 1 1 1 1 1 
1 1 1 1 1 1 1 1 1 
1 1 1 1 1 1 1 1 1 
1 1 1 1 1 1 1 1 1 
1 1 1 1 1 1 1 1 1 
1 1 1 1 1 1 1 1 1 
1 1 1 1 1 1 1 1 1 
1 1 1 1 1 1 1 1 1 
1 1 1 1 1 1 1 1 1 
1 1 1 1 1 1 1 1 1 
1 1 1 1 1 1 1 1 1 
1 1 1 1 1 1 1 1 1 
1 1 1 1 1 1 1 1 1 
1 1 1 1 1 1 1 1 1 
1 1 1 1 1 1 1 1 1 
1 1 1 1 1 1 1 1 1 
1 1 1 1 1 1 1 1 1 
1 1 1 1 1 1 1 1 1 
1 1 1 1 1 1 1 1 1 
1 1 1 1 1 1 1 1 1 
1 1 1 1 1 1 1 1 1 
1 1 1 1 1 1 1 1 1 
1 1 1 1 1 1 1 1 1 
1 1 1 1 1 1 1 1 1 
1 1 1 1 1 1 1 1 1 
1 1 1 1 1 1 1 1 1 
1 1 1 1 1 1 1 1 1 
1 1 1 1 1 1 1 1 1 
1 1 1 1 1 1 1 1 1 
1 1 1 1 1 1 1 1 1 
1 1 1 1 1 1 1 1 1 
1 1 1 1 1 1 1 1 1 
1 1 1 1 1 1 1 1 1 
1 1 1 1 1 1 1 1 1 
1 1 1 1 1 1 1 1 1 
1 1 1 1 1 1 1 1 1 
1 1 1 1 1 1 1 1 1 
1 1 1 1 1 1 1 1 1 
1 1 1 1 1 1 1 1 1 
1 1 1 1 1 1 1 1 1 
1 1 1 1 1 1 1 1 1 
1 1 1 1 1 1 1 1 1 
1 1 1 1 1 1 1 1 1 
1 1 1 1 1 1 1 1 1 
1 1 1 1 1 1 1 1 1 
1 1 1 1 1 1 1 1 1 
1 1 1 1 1 1 1 1 1 
1 1 1 1 1 1 1 1 1 
1 1 1 1 1 1 1 1 1 
1 1 1 1 1 1 1 1 1 
1 1 1 1 1 1 1 1 1 
1 1 1 1 1 1 1 1 1 
1 1 1 1 1 1 1 1 1 
1 1 1 1 1 1 1 1 1 
1 1 1 1 1 1 1 1 1 
1 1 1 1 1 1 1 1 1 
1 1 1 1 1 1 1 1 1 
1 1 1 1 1 1 1 1 1 
1 1 1 1 1 1 1 1 1 
1 1 1 1 1 1 1 1 1 
1 1 1 1 1 1 1 1 1 
1 1 1 1 1 1 1 1 1 
1 1 1 1 1 1 1 1 1 
1 1 1 1 1 1 1 1 1 
1 1 1 1 1 1 1 1 1 
1 1 1 1 1 1 1 1 1 
1 1 1 1 1 1 1 1 1 
1 1 1 1 1 1 1 1 1 
1 1 1 1 1 1 1 1 1 
1 1 1 1 1 1 1 1 1 
1 1 1 1 1 1 1 1 1 
1 1 1 1 1 1 1 1 1 
1 1 1 1 1 1 1 1 1 
1 1 1 1 1 1 1 1 1 
1 1 1 1 1 1 1 1 1 
1 1 1 1 1 1 1 1 1 
1 1 1 1 1 1 1 1 1 
1 1 1 1 1 1 1 1 1 
1 1 1 1 1 1 1 1 1 
1 1 1 1 1 1 1 1 1 
1 1 1 1 1 1 1 1 1 
1 1 1 1 1 1 1 1 1 
1 1 1 1 1 1 1 1 1 
1 1 1 1 1 1 1 1 1 
1 1 1 1 1 1 1 1 1 
1 1 1 1 1 1 1 1 1 
1 1 1 1 1 1 1 1 1 
1 1 1 1 1 1 1 1 1 
1 1 1 1 1 1 1 1 1 
1 1 1 1 1 1 1 1 1 
1 1 1 1 1 1 1 1 1 
1 1 1 1 1 1 1 1 1 
1 1 1 1 1 1 1 1 1 
1 1 1 1 1 1 1 1 1 
1 1 1 1 1 1 1 1 1 
1 1 1 1 1 1 1 1 1 
1 1 1 1 1 1 1 1 1 
1 1 1 1 1 1 1 1 1 
1 1 1 1 1 1 1 1 1 
1 1 1 1 1 1 1 1 1 
1 1 1 1 1 1 1 1 1 
1 1 1 1 1 1 1 1 1 
1 1 1 1 1 1 1 1 1 
1 1 1 1 1 1 1 1 1 
1 1 1 1 1 1 1 1 1 
1 1 1 1 1 1 1 1 1 
1 1 1 1 1 1 1 1 1 
1 1 1 1 1 1 1 1 1 
1 1 1 1 1 1 1 1 1 
1 1 1 1 1 1 1 1 1 
1 1 1 1 1 1 1 1 1 
1 1 1 1 1 1 1 1 1 
1 1 1 1 1 1 1 1 1 
1 1 1 1 1 1 1 1 1 
1 1 1 1 1 1 1 1 1 
1 1 1 1 1 1 1 1 1 
1 1 1 1 1 1 1 1 1 
1 1 1 1 1 1 1 1 1 
1 1 1 1 1 1 1 1 1 
1 1 1 1 1 1 1 1 1 
1 1 1 1 1 1 1 1 1 
1 1 1 1 1 1 1 1 1 
1 1 1 1 1 1 1 1 1 
1 1 1 1 1 1 1 1 1 
1 1 1 1 1 1 1 1 1 
1 1 1 1 1 1 1 1 1 
1 1 1 1 1 1 1 1 1 
1 1 1 1 1 1 1 1 1 
1 1 1 1 1 1 1 1 1 
1 1 1 1 1 1 1 1 1 
1 1 1 1 1 1 1 1 1 
1 1 1 1 1 1 1 1 1 
1 1 1 1 1 1 1 1 1 
1 1 1 1 1 1 1 1 1 
1 1 1 1 1 1 1 1 1 
1 1 1 1 1 1 1 1 1 
1 1 1 1 1 1 1 1 1 
1 1 1 1 1 1 1 1 1 
1 1 1 1 1 1 1 1 1 
1 1 1 1 1 1 1 1 1 
1 1 1 1 1 1 1 1 1 
1 1 1 1 1 1 1 1 1 
1 1 1 1 1 1 1 1 1 
1 1 1 1 1 1 1 1 1 
1 1 1 1 1 1 1 1 1 
1 1 1 1 1 1 1 1 1 
1 1 1 1 1 1 1 1 1 
1 1 1 1 1 1 1 1 1 
1 1 1 1 1 1 1 1 1 
1 1 1 1 1 1 1 1 1 
1 1 1 1 1 1 1 1 1 
1 1 1 1 1 1 1 1 1 
1 1 1 1 1 1 1 1 1 
1 1 1 1 1 1 1 1 1 
1 1 1 1 1 1 1 1 1 
1 1 1 1 1 1 1 1 1 
1 1 1 1 1 1 1 1 1 
1 1 1 1 1 1 1 1 1 
1 1 1 1 1 1 1 1 1 
1 1 1 1 1 1 1 1 1 
1 1 1 1 1 1 1 1 1 
1 1 1 1 1 1 1 1 1 
1 1 1 1 1 1 1 1 1 
1 1 1 1 1 1 1 1 1 
1 1 1 1 1 1 1 1 1 
1 1 1 1 1 1 1 1 1 
1 1 1 1 1 1 1 1 1 
1 1 1 1 1 1 1 1 1 
1 1 1 1 1 1 1 1 1 
1 1 1 1 1 1 1 1 1 
1 1 1 1 1 1 1 1 1 
1 1 1 1 1 1 1 1 1 
1 1 1 1 1 1 1 1 1 
1 1 1 1 1 1 1 1 1 
1 1 1 1 1 1 1 1 1 
1 1 1 1 1 1 1 1 1 
1 1 1 1 1 1 1 1 1 
1 1 1 1 1 1 1 1 1 
1 1 1 1 1 1 1 1 1 
1 1 1 1 1 1 1 1 1 
1 1 1 1 1 1 1 1 1 
1 1 1 1 1 1 1 1 1 
1 1 1 1 1 1 1 1 1 
1 1 1 1 1 1 1 1 1 
1 1 1 1 1 1 1 1 1 
1 1 1 1 1 1 1 1 1 
1 1 1 1 1 1 1 1 1 
1 1 1 1 1 1 1 1 1 
1 1 1 1 1 1 1 1 1 
1 1 1 1 1 1 1 1 1 
1 1 1 1 1 1 1 1 1 
1 1 1 1 1 1 1 1 1 
1 1 1 1 1 1 1 1 1 
1 1 1 1 1 1 1 1 1 
1 1 1 1 1 1 1 1 1 
1 1 1 1 1 1 1 1 1 
1 1 1 1 1 1 1 1 1 
1 1 1 1 1 1 1 1 1 
1 1 1 1 1 1 1 1 1 
1 1 1 1 1 1 1 1 1 
1 1 1 1 1 1 1 1 1 
1 1 1 1 1 1 1 1 1 
1 1 1 1 1 1 1 1 1 
1 1 1 1 1 1 1 1 1 
1 1 1 1 1 1 1 1 1 
1 1 1 1 1 1 1 1 1 
1 1 1 1 1 1 1 1 1 
1 1 1 1 1 1 1 1 1 
1 1 1 1 1 1 1 1 1 
1 1 1 1 1 1 1 1 1 
1 1 1 1 1 1 1 1 1 
1 1 1 1 1 1 1 1 1 
1 1 1 1 1 1 1 1 1 
1 1 1 1 1 1 1 1 1 
1 1 1 1 1 1 1 1 1 
1 1 1 1 1 1 1 1 1 
1 1 1 1 1 1 1 1 1 
1 1 1 1 1 1 1 1 1 
1 1 1 1 1 1 1 1 1 
1 1 1 1 1 1 1 1 1 
1 1 1 1 1 1 1 1 1 
1 1 1 1 1 1 1 1 1 
1 1 1 1 1 1 1 1 1 
1 1 1 1 1 1 1 1 1 
1 1 1 1 1 1 1 1 1 
1 1 1 1 1 1 1 1 1 
1 1 1 1 1 1 1 1 1 
1 1 1 1 1 1 1 1 1 
1 1 1 1 1 1 1 1 1 
1 1 1 1 1 1 1 1 1 
1 1 1 1 1 1 1 1 1 
1 1 1 1 1 1 1 1 1 
1 1 1 1 1 1 1 1 1 
1 1 1 1 1 1 1 1 1 
1 1 1 1 1 1 1 1 1 
1 1 1 1 1 1 1 1 1 
1 1 1 1 1 1 1 1 1 
1 1 1 1 1 1 1 1 1 
1 1 1 1 1 1 1 1 1 
1 1 1 1 1 1 1 1 1 
1 1 1 1 1 1 1 1 1 
1 1 1 1 1 1 1 1 1 
1 1 1 1 1 1 1 1 1 
1 1 1 1 1 1 1 1 1 
1 1 1 1 1 1 1 1 1 
1 1 1 1 1 1 1 1 1 
1 1 1 1 1 1 1 1 1 
1 1 1 1 1 1 1 1 1 
1 1 1 1 1 1 1 1 1 
1 1 1 1 1 1 1 1 1 
1 1 1 1 1 1 1 1 1 
1 1 1 1 1 1 1 1 1 
1 1 1 1 1 1 1 1 1 
1 1 1 1 1 1 1 1 1 
1 1 1 1 1 1 1 1 1 
1 1 1 1 1 1 1 1 1 
1 1 1 1 1 1 1 1 1 
1 1 1 1 1 1 1 1 1 
1 1 1 1 1 1 1 1 1 
1 1 1 1 1 1 1 1 1 
1 1 1 1 1 1 1 1 1 
1 1 1 1 1 1 1 1 1 
1 1 1 1 1 1 1 1 1 
1 1 1 1 1 1 1 1 1 
1 1 1 1 1 1 1 1 1 
1 1 1 1 1 1 1 1 1 
1 1 1 1 1 1 1 1 1 
1 1 1 1 1 1 1 1 1 
1 1 1 1 1 1 1 1 1 
1 1 1 1 1 1 1 1 1 
1 1 1 1 1 1 1 1 1 
1 1 1 1 1 1 1 1 1 
1 1 1 1 1 1 1 1 1 
1 1 1 1 1 1 1 1 1 
1 1 1 1 1 1 1 1 1 
1 1 1 1 1 1 1 1 1 
1 1 1 1 1 1 1 1 1 
1 1 1 1 1 1 1 1 1 
1 1 1 1 1 1 1 1 1 
1 1 1 1 1 1 1 1 1 
1 1 1 1 1 1 1 1 1 
1 1 1 1 1 1 1 1 1 
1 1 1 1 1 1 1 1 1 
1 1 1 1 1 1 1 1 1 
1 1 1 1 1 1 1 1 1 
1 1 1 1 1 1 1 1 1 
1 1 1 1 1 1 1 1 1 
1 1 1 1 1 1 1 1 1 
1 1 1 1 1 1 1 1 1 
1 1 1 1 1 1 1 1 1 
1 1 1 1 1 1 1 1 1 
1 1 1 1 1 1 1 1 1 
1 1 1 1 1 1 1 1 1 
1 1 1 1 1 1 1 1 1 
1 1 1 1 1 1 1 1 1 
1 1 1 1 1 1 1 1 1 
1 1 1 1 1 1 1 1 1 
1 1 1 1 1 1 1 1 1 
1 1 1 1 1 1 1 1 1 
1 1 1 1 1 1 1 1 1 
1 1 1 1 1 1 1 1 1 
1 1 1 1 1 1 1 1 1 
1 1 1 1 1 1 1 1 1 
1 1 1 1 1 1 1 1 1 
1 1 1 1 1 1 1 1 1 
1 1 1 1 1 1 1 1 1 
1 1 1 1 1 1 1 1 1 
1 1 1 1 1 1 1 1 1 
1 1 1 1 1 1 1 1 1 
1 1 1 1 1 1 1 1 1 
1 1 1 1 1 1 1 1 1 
1 1 1 1 1 1 1 1 1 
1 1 1 1 1 1 1 1 1 
1 1 1 1 1 1 1 1 1 
1 1 1 1 1 1 1 1 1 
1 1 1 1 1 1 1 1 1 
1 1 1 1 1 1 1 1 1 
1 1 1 1 1 1 1 1 1 
1 1 1 1 1 1 1 1 1 
1 1 1 
NORMALS normals float
-0.0113622 -0.0113622 -0.999871 -0.0113622 -0.999871 -0.0113622 -0.57735 -0.57735 -0.57735 
0 -0.0113629 -0.999935 0 -0.999935 -0.0113629 0 -0.0113629 -0.999935 
0 -0.999935 -0.0113629 0 -0.0113629 -0.999935 0 -0.707107 -0.707107 
0 -0.0113629 -0.999935 0 -0.707107 -0.707107 0 -0.0113629 -0.999935 
0 -0.707107 -0.707107 0 -0.0113629 -0.999935 0 -0.999935 -0.0113629 
0 -0.0113629 -0.999935 0 -0.999935 -0.0113629 0 -0.0113629 -0.999935 
0 -0.999935 -0.0113629 0.0113622 -0.0113622 -0.999871 0.0113622 -0.999871 -0.0113622 
0.999871 -0.0113622 -0.0113622 -0.0113622 -0.0113622 -0.999871 -0.57735 -0.57735 -0.57735 
-0.57735 -0.57735 -0.57735 0 0 -1 0 0 -1 
0 0 -1 0 0 -1 0 0 -1 
0 0 -1 0 0 -1 0 0 -1 
0 0 -1 0.0113629 0 -0.999935 0.711113 -0.703032 -0.00808082 
-0.0113622 -0.0113622 -0.999871 -0.57735 -0.57735 -0.57735 -0.707084 -0.00803505 -0.707084 
0 0 -1 0 0 -1 0 0 -1 
0 0 -1 0 0 -1 0 0 -1 
0 0 -1 0 0 -1 0 0 -1 
0 0 -1 0 0 -1 0.703032 -0.711113 -0.00808082 
0 -0.0113629 -0.999935 0.0113622 -0.0113622 -0.999871 0.0113622 -0.999871 -0.0113622 
0.999871 -0.0113622 -0.0113622 -0.0113629 0 -0.999935 -0.707107 0 -0.707107 
0 0 -1 0 0 -1 0 0 -1 
0 0 -1 0 0 -1 0 0 -1 
0 0 -1 0 0 -1 0 0 -1 
0 0 -1 0 0 -1 0 0 -1 
0.0113629 0 -0.999935 0.999935 0 -0.0113629 -0.0113629 0 -0.999935 
-0.707107 0 -0.707107 0 0 -1 0 0 -1 
0 0 -1 0 0 -1 0 0 -1 
0 0 -1 0 0 -1 0 0 -1 
0 0 -1 0 0 -1 0 0 -1 
0 0 -1 0.0113629 0 -0.999935 0.999935 0 -0.0113629 
-0.0113629 0 -0.999935 -0.707107 0 -0.707107 0 0 -1 
0 0 -1 0 0 -1 0 0 -1 
0 0 -1 0 0 -1 0 0 -1 
0 0 -1 0 0 -1 0 0 -1 
0 0 -1 0 0 -1 0.0113629 0 -0.999935 
0.999935 0 -0.0113629 -0.0113629 0 -0.999935 -0.707107 0 -0.707107 
0 0 -1 0 0 -1 0 0 -1 
0 0 -1 0 0 -1 0 0 -1 
0 0 -1 0 0 -1 0 0 -1 
0 0 -1 0 0 -1 0 0 -1 
0.0113622 0.0113622 -0.999871 0.999871 0.0113622 -0.0113622 -0.0113622 0.0113622 -0.999871 
-0.707084 0.00803505 -0.707084 0 0.0113629 -0.999935 0 0 -1 
0 0 -1 0 0 -1 0 0 -1 
0 0 -1 0 0 -1 0 0 -1 
0 0 -1 0 0 -1 0 0 -1 
0.0113622 0.0113622 -0.999871 0.57735 0.57735 -0.57735 0.57735 0.57735 -0.57735 
-0.0113622 0.999871 -0.0113622 -0.572951 0.579537 -0.579537 -0.579537 0.572951 -0.579537 
-0.0113629 0 -0.999935 0 0 -1 0 0 -1 
0 0 -1 0 0 -1 0 0 -1 
0 0 -1 0 0 -1 0 0 -1 
0.0113622 0.0113622 -0.999871 0.707084 0.707084 -0.00803505 0.707084 0.707084 -0.00803505 
-0.0113629 0 -0.999935 -0.707107 0 -0.707107 0 0 -1 
0 0 -1 0 0 -1 0 0 -1 
0 0 -1 0 0 -1 0 0 -1 
0.0113622 0.0113622 -0.999871 0.57735 0.57735 -0.57735 0.57735 0.57735 -0.57735 
-0.0113629 0 -0.999935 -0.707107 0 -0.707107 0 0 -1 
0 0 -1 0 0 -1 0 0 -1 
0 0 -1 0 0 -1 0.0113622 0.0113622 -0.999871 
0.707084 0.707084 -0.00803505 0.707084 0.707084 -0.00803505 -0.0113622 0.0113622 -0.999871 
-0.999871 0.0113622 -0.0113622 0 0.0113629 -0.999935 0 0.0113629 -0.999935 
0 0.0113629 -0.999935 0 0.0113629 -0.999935 0 0.0113629 -0.999935 
0.0113622 0.0113622 -0.999871 0.57735 0.57735 -0.57735 0.57735 0.57735 -0.57735 
-0.0113622 0.999871 -0.0113622 0 0.999935 -0.0113629 0 0.999935 -0.0113629 
0 0.999935 -0.0113629 0 0.999935 -0.0113629 0 0.999935 -0.0113629 
0.0113622 0.999871 -0.0113622 -0.0113629 0 -0.999935 -0.00808082 -0.703032 -0.711113 
-0.707107 0 -0.707107 0 0 -1 0 -0.703055 -0.711136 
0 0 -1 0 -0.703055 -0.711136 0 0 -1 
0 -0.703055 -0.711136 0 0 -1 0 -0.703055 -0.711136 
0.0113622 -0.0113622 -0.999871 0.00803505 -0.707084 -0.707084 0.707084 -0.00803505 -0.707084 
-0.00803505 -0.707084 -0.707084 -0.0113622 -0.999871 -0.0113622 -0.707084 -0.707084 -0.00803505 
0 -0.707107 -0.707107 0 -0.707107 -0.707107 0.00803505 -0.707084 -0.707084 
0.00803505 -0.707084 -0.707084 0.707084 -0.707084 -0.00803505 -0.00808082 0.703032 -0.711113 
0 0.703055 -0.711136 0 0.703055 -0.711136 0 0.703055 -0.711136 
-0.575138 0.575138 -0.581749 -0.575138 0.575138 -0.581749 0 0 -1 
0.575138 -0.575138 -0.581749 -0.57735 -0.57735 -0.57735 -0.0113622 -0.999871 -0.0113622 
-0.57735 -0.57735 -0.57735 0 -1 0 0 -1 0 
-0.703055 -0.711136 0 0.703055 -0.711136 0 0 -1 0 
0 -1 0 0.0113629 -0.999935 0 0.999935 -0.0113629 0 
-0.0113622 0.0113622 -0.999871 -0.707084 0.00803505 -0.707084 0.575138 -0.575138 -0.581749 
0 0 -1 0 0 -1 0 -0.703055 -0.711136 
0 0 -1 0 -0.703055 -0.711136 0 -0.0113629 -0.999935 
0 -0.707107 -0.707107 -0.572951 -0.579537 -0.579537 -0.572951 -0.579537 -0.579537 
0.711136 -0.703055 0 -0.00803505 0.707084 -0.707084 0 0.703055 -0.711136 
0 0.703055 -0.711136 -0.575138 0.575138 -0.581749 -0.579537 0.572951 -0.579537 
-0.707107 0 -0.707107 0.703055 -0.711136 0 0.0113629 -0.999935 0 
0.711113 -0.00808082 -0.703032 -0.707107 0 -0.707107 -0.707107 0 -0.707107 
0.711136 0 -0.703055 -0.707107 0 -0.707107 -0.707107 0 -0.707107 
0.711136 0 -0.703055 -0.707107 0 -0.707107 -0.707107 0 -0.707107 
0.711136 0 -0.703055 -0.707107 0 -0.707107 -0.707107 0 -0.707107 
0.711136 0 -0.703055 -0.707107 0 -0.707107 -0.707107 0 -0.707107 
0.57735 0.57735 -0.57735 0.707084 0.00803505 -0.707084 0 0 -1 
-0.575138 -0.575138 -0.581749 0 0.711136 -0.703055 0 0.703055 -0.711136 
-0.579537 0.572951 -0.579537 -0.00808082 0.703032 -0.711113 0.581749 0.575138 -0.575138 
0.575138 0.581749 -0.575138 0.00803505 0.707084 -0.707084 -0.0113629 0 -0.999935 
-0.00808082 -0.703032 -0.711113 -0.707107 0 -0.707107 0 0 -1 
0 -0.703055 -0.711136 0.0113622 -0.0113622 -0.999871 0.00803505 -0.707084 -0.707084 
0.0113622 -0.0113622 -0.999871 -0.0113622 -0.0113622 -0.999871 -0.00803505 -0.707084 -0.707084 
-0.0113622 -0.0113622 -0.999871 0 0 -1 0 -0.703055 -0.711136 
0 0 -1 0 -0.703055 -0.711136 0 0 -1 
-0.575138 -0.575138 -0.581749 0.0113622 0.0113622 -0.999871 0.0113622 0.0113622 -0.999871 
-0.707107 0 -0.707107 -0.0113629 0 -0.999935 0.57735 0.57735 -0.57735 
0.707084 0.00803505 -0.707084 -0.0114927 0.999868 -0.0114927 -0.575138 0.575138 -0.581749 
-0.572951 0.579537 -0.579537 0 0.0113629 -0.999935 0 0.0113629 -0.999935 
0 0.0113629 -0.999935 0 0.0113629 -0.999935 0.572951 0.579537 -0.579537 
0.575138 0.575138 -0.581749 0 0.703055 -0.711136 0 0.703055 -0.711136 
0.00803505 0.707084 -0.707084 -0.707084 0.00803505 -0.707084 -0.707084 0.00803505 -0.707084 
0.581749 0.575138 -0.575138 0.575138 0.581749 -0.575138 0.00803505 0.707084 -0.707084 
0 0.707107 -0.707107 0 0.707107 -0.707107 -0.57735 0.57735 -0.57735 
-0.579537 0.579537 -0.572951 0.57735 0.57735 -0.57735 0.707084 0.00803505 -0.707084 
-0.00808082 0.711113 -0.703032 0 0.711136 -0.703055 0 0.711136 -0.703055 
0 0.711136 -0.703055 0 0.711136 -0.703055 0 0.711136 -0.703055 
0 0.711136 -0.703055 0.00803505 0.707084 -0.707084 0 -0.0113629 -0.999935 
0 -0.999935 -0.0113629 -0.572951 -0.579537 -0.579537 0.703032 -0.711113 -0.00808082 
-0.0113622 -0.0113622 -0.999871 -0.57735 -0.57735 -0.57735 -0.57735 -0.57735 -0.57735 
0 0 -1 0.703032 -0.711113 -0.00808082 0 -0.0113629 -0.999935 
0.0113622 -0.0113622 -0.999871 0.0113622 -0.999871 -0.0113622 0.999871 -0.0113622 -0.0113622 
-0.0113622 -0.0113622 -0.999871 -0.57735 -0.57735 -0.57735 -0.57735 -0.57735 -0.57735 
0 0 -1 0 0 -1 0 0 -1 
0.0113629 0 -0.999935 0.711113 -0.703032 -0.00808082 -0.00803505 -0.707084 -0.707084 
-0.00803505 -0.707084 -0.707084 -0.57735 -0.57735 -0.57735 0 -0.707107 -0.707107 
0 -0.707107 -0.707107 0 -0.707107 -0.707107 -0.572951 -0.579537 -0.579537 
0 -0.703055 -0.711136 0 -0.703055 -0.711136 0 -0.703055 -0.711136 
0 0 -1 0 0 -1 0.703032 -0.711113 -0.00808082 
0 -0.0113629 -0.999935 0.0113622 -0.0113622 -0.999871 0.0113622 -0.999871 -0.0113622 
0.999871 -0.0113622 -0.0113622 -0.00803505 -0.707084 -0.707084 -0.0113622 -0.999871 -0.0113622 
-0.57735 -0.57735 -0.57735 0.00803505 -0.707084 -0.707084 0.0113622 -0.999871 -0.0113622 
0.999871 -0.0113622 -0.0113622 -0.707084 -0.00803505 -0.707084 -0.57735 -0.57735 -0.57735 
-0.57735 -0.57735 -0.57735 0.703055 0 -0.711136 0 0 -1 
0 0 -1 0.0113629 0 -0.999935 0.711113 -0.703032 -0.00808082 
-0.579537 -0.579537 -0.572951 -0.579537 -0.579537 -0.572951 0.711136 -0.703055 0 
-0.0113622 -0.0113622 -0.999871 -0.57735 -0.57735 -0.57735 -0.57735 -0.57735 -0.57735 
0 0 -1 0 0.703055 -0.711136 0 0.703055 -0.711136 
0 0.703055 -0.711136 0 0.703055 -0.711136 -0.575138 0.575138 -0.581749 
0.575138 -0.575138 -0.581749 0 -0.703055 -0.711136 0 -0.703055 -0.711136 
0 -0.703055 -0.711136 0.703032 -0.711113 -0.00808082 -0.572951 -0.579537 -0.579537 
0 -1 0 0 -1 0 0 -0.711136 -0.703055 
-0.575138 -0.581749 -0.575138 0.703055 -0.711136 0 0 -1 0 
0 -1 0 0.0113622 -0.999871 0.0113622 0.999871 -0.0113622 0.0113622 
-0.0113622 -0.0113622 -0.999871 -0.57735 -0.57735 -0.57735 -0.57735 -0.57735 -0.57735 
0 0 -1 0 0 -1 0 0 -1 
0 0 -1 0 0 -1 0 0 -1 
-0.703055 0 -0.711136 0.711136 -0.703055 0 -0.0113622 -0.0113622 -0.999871 
-0.00803505 -0.707084 -0.707084 -0.999871 -0.0113622 -0.0113622 0 -0.0113629 -0.999935 
0 -0.707107 -0.707107 0 -0.0113629 -0.999935 -0.572951 -0.579537 -0.579537 
0 0 -1 0 0 -1 0 0 -1 
0 0 -1 0 0 -1 0 0 -1 
0 0 -1 0 0 -1 0 0.703055 -0.711136 
0 0.703055 -0.711136 0 0.703055 -0.711136 -0.575138 0.575138 -0.581749 
0.703055 -0.711136 0 0 -1 0 0.703032 -0.00808082 -0.711113 
0 -0.999935 -0.0113629 0 -0.0113629 -0.999935 0 -0.999935 -0.0113629 
0 -0.0113629 -0.999935 0 -0.999935 -0.0113629 0.0113622 -0.0113622 -0.999871 
0.0113622 -0.999871 -0.0113622 0.999871 -0.0113622 -0.0113622 -0.0113622 0.0113622 -0.999871 
-0.999871 0.0113622 -0.0113622 0 0.0113629 -0.999935 0 0 -1 
0 0 -1 0 0 -1 0 0 -1 
0 0 -1 0 0 -1 0 0 -1 
0 0 -1 0 0 -1 0 0 -1 
0 0 -1 0 0 -1 -0.703055 0 -0.711136 
0.703055 0 -0.711136 0 0 -1 0 0 -1 
0.0113629 0 -0.999935 0.999935 0 -0.0113629 -0.0113622 0.999871 -0.0113622 
-0.572951 0.579537 -0.579537 -0.579537 0.572951 -0.579537 -0.0113629 0 -0.999935 
0 0 -1 0 0 -1 0 0 -1 
0 0 -1 0 0 -1 0 0 -1 
0 0 -1 0 0 -1 0 0 -1 
0 0 -1 0 0 -1 -0.703055 0 -0.711136 