# vtk DataFile Version 3.0
vtk output
ASCII
DATASET POLYDATA
POINTS 2064 float
75 134 51.0476 75 133.048 52 74.0476 134 52 
76 134 51.0476 76 133.048 52 76.9524 134 52 
75 135 51.0476 74.0476 135 52 76 135 51.0476 
76.9524 135 52 75 135.952 52 76 135.952 52 
77 135.048 52 76.0476 136 52 77 136 51.0476 
78 136 51.0476 78 135.048 52 79 136 51.0476 
79 135.048 52 80 136 51.0476 80 135.048 52 
80.9524 136 52 77 137 51.0476 76.0476 137 52 
78 137 51.0476 79 137 51.0476 79.9524 137 52 
80 136.952 52 77 137.952 52 78 137.952 52 
79 137.952 52 72 130 52.0476 72 129.048 53 
71.0476 130 53 72.9524 130 53 70 131 52.0476 
70 130.048 53 69.0476 131 53 71 131 52.0476 
71 130.048 53 72 131 52.0476 72.9524 131 53 
70 132 52.0476 69.0476 132 53 70.9524 132 53 
71 131.952 53 71.0476 132 53 72 132 52.0476 
72.9524 132 53 74 132 52.0476 74 131.048 53 
73.0476 132 53 74.9524 132 53 65 133 52.0476 
65 132.048 53 64.0476 133 53 66 133 52.0476 
66 132.048 53 67 133 52.0476 67 132.048 53 
68 133 52.0476 68 132.048 53 69 133 52.0476 
69 132.048 53 70 133 52.0476 71 132.048 53 
71 133 52.0476 72 133 52.0476 73 132.048 53 
73 133 52.0476 74 133 52.0476 75 132.048 53 
75 133 52.0476 75.9524 133 53 65 133.952 53 
65.0476 134 53 66 134 52.0476 66.9524 134 53 
67 133.952 53 68 133.952 53 69 133.952 53 
70 133.952 53 71 133.952 53 72 133.952 53 
73 133.952 53 73.0476 134 53 74 134 52.0476 
76 133.048 53 76.9524 134 53 66 134.952 53 
74 135 52.0476 73.0476 135 53 77 134.048 53 
77 135 52.0476 78 135 52.0476 78 134.048 53 
79 135 52.0476 79 134.048 53 79.9524 135 53 
74 136 52.0476 73.0476 136 53 75 135.952 53 
74.9524 136 53 76 136 52.0476 75.0476 136 53 
80 135.048 53 80.9524 136 53 72 137 52.0476 
72 136.048 53 71.0476 137 53 73 137 52.0476 
73 136.048 53 74 137 52.0476 74.9524 137 53 
76 137 52.0476 75.0476 137 53 80 137 52.0476 
81 136.048 53 81 137 52.0476 82 137 52.0476 
82 136.048 53 83 137 52.0476 83 136.048 53 
83.9524 137 53 72 138 52.0476 71.0476 138 53 
72.9524 138 53 73 137.952 53 74 137.952 53 
76 137.952 53 77 137.952 53 78 138 52.0476 
77.0476 138 53 78.9524 138 53 79 137.952 53 
80 137.952 53 81 137.952 53 82 137.952 53 
83 137.952 53 72 138.952 53 78 139 52.0476 
77.0476 139 53 78.9524 139 53 78 140 52.0476 
77.0476 140 53 78.9524 140 53 78 141 52.0476 
77.0476 141 53 78.9524 141 53 78 142 52.0476 
77.0476 142 53 78.9524 142 53 78 142.952 53 
72 129 53.0476 72 128.048 54 71.0476 129 54 
72.9524 129 54 67 130 53.0476 67 129.048 54 
66.0476 130 54 68 130 53.0476 68 129.048 54 
69 130 53.0476 69 129.048 54 70 130 53.0476 
70 129.048 54 71 130 53.0476 71 129.048 54 
73 130 53.0476 73 129.048 54 74 130 53.0476 
74 129.048 54 74.9524 130 54 66 131 53.0476 
66 130.048 54 65.0476 131 54 67 131 53.0476 
68 131 53.0476 69 131 53.0476 73 131 53.0476 
74 131 53.0476 74.9524 131 54 63 132 53.0476 
63 131.048 54 62.0476 132 54 64 132 53.0476 
64 131.048 54 65 132 53.0476 65 131.048 54 
66 132 53.0476 67 132 53.0476 68 132 53.0476 
69 132 53.0476 71 132 53.0476 73 132 53.0476 
75 132 53.0476 75 131.048 54 76 132 53.0476 
76 131.048 54 76.9524 132 54 63 133 53.0476 
62.0476 133 54 64 133 53.0476 76 133 53.0476 
76.9524 133 54 63 133.952 54 64 133.952 54 
65 134 53.0476 64.0476 134 54 67 134 53.0476 
68 134 53.0476 69 134 53.0476 70 134 53.0476 
71 134 53.0476 72 134 53.0476 73 134 53.0476 
77 134 53.0476 77 133.048 54 78 134 53.0476 
78 133.048 54 79 134 53.0476 79 133.048 54 
80 134 53.0476 80 133.048 54 80.9524 134 54 
65 135 53.0476 64.0476 135 54 66 135 53.0476 
67 135 53.0476 68 135 53.0476 69 135 53.0476 
70 135 53.0476 71 135 53.0476 72 135 53.0476 
73 135 53.0476 80 135 53.0476 80.9524 135 54 
65 135.952 54 66 135.952 54 67 135.952 54 
68 135.952 54 68.0476 136 54 69 136 53.0476 
70 136 53.0476 71 136 53.0476 72 136 53.0476 
73 136 53.0476 75 136 53.0476 81 136 53.0476 
81 135.048 54 82 136 53.0476 82 135.048 54 
83 136 53.0476 83 135.048 54 84 136 53.0476 
84 135.048 54 84.9524 136 54 69 137 53.0476 
68.0476 137 54 70 137 53.0476 71 137 53.0476 
75 137 53.0476 84 137 53.0476 84.9524 137 54 
69 137.952 54 70 137.952 54 70.0476 138 54 
71 138 53.0476 73 138 53.0476 74 138 53.0476 
75 138 53.0476 76 138 53.0476 77 138 53.0476 
79 138 53.0476 80 138 53.0476 81 138 53.0476 
82 138 53.0476 83 138 53.0476 84 138 53.0476 
85 137.048 54 85 138 53.0476 86 138 53.0476 
86 137.048 54 86.9524 138 54 71 139 53.0476 
70.0476 139 54 72 139 53.0476 73 139 53.0476 
74 139 53.0476 75 139 53.0476 76 139 53.0476 
77 139 53.0476 79 139 53.0476 80 139 53.0476 
81 139 53.0476 82 139 53.0476 83 139 53.0476 
84 139 53.0476 85 139 53.0476 86 139 53.0476 
86.9524 139 54 71 139.952 54 72 139.952 54 
73 139.952 54 74 139.952 54 75 139.952 54 
76 139.952 54 76.0476 140 54 77 140 53.0476 
79 140 53.0476 80 140 53.0476 81 140 53.0476 
82 140 53.0476 83 140 53.0476 84 140 53.0476 
85 140 53.0476 86 140 53.0476 87 139.048 54 
87 140 53.0476 88 140 53.0476 88 139.048 54 
88.9524 140 54 77 141 53.0476 76.0476 141 54 
79 141 53.0476 80 141 53.0476 81 141 53.0476 
82 141 53.0476 83 141 53.0476 84 141 53.0476 
85 141 53.0476 86 141 53.0476 87 141 53.0476 
88 141 53.0476 88.9524 141 54 77 142 53.0476 
76.0476 142 54 79 142 53.0476 80 142 53.0476 
81 142 53.0476 82 142 53.0476 83 142 53.0476 
84 142 53.0476 85 142 53.0476 86 142 53.0476 
87 142 53.0476 88 142 53.0476 88.9524 142 54 
77 143 53.0476 76.0476 143 54 78 143 53.0476 
79 143 53.0476 80 143 53.0476 81 143 53.0476 
82 143 53.0476 83 143 53.0476 84 143 53.0476 
85 143 53.0476 86 143 53.0476 87 143 53.0476 
88 143 53.0476 88.9524 143 54 77 143.952 54 
78 143.952 54 78.0476 144 54 79 144 53.0476 
80 144 53.0476 81 144 53.0476 82 144 53.0476 
83 144 53.0476 84 144 53.0476 85 144 53.0476 
86 144 53.0476 87 144 53.0476 88 144 53.0476 
88.9524 144 54 79 145 53.0476 78.0476 145 54 
80 145 53.0476 81 145 53.0476 82 145 53.0476 
83 145 53.0476 84 145 53.0476 85 145 53.0476 
86 145 53.0476 87 145 53.0476 88 145 53.0476 
88.9524 145 54 79 145.952 54 80 145.952 54 
81 145.952 54 82 145.952 54 83 145.952 54 
84 145.952 54 85 145.952 54 86 145.952 54 
86.0476 146 54 87 146 53.0476 88 146 53.0476 
88.9524 146 54 87 147 53.0476 86.0476 147 54 
88 147 53.0476 88.9524 147 54 87 147.952 54 
88 147.952 54 72 128.048 55 71.0476 129 55 
73 129 54.0476 73 128.048 55 73.9524 129 55 
66 130 54.0476 66 129.048 55 65.0476 130 55 
67 129.048 55 68 129.048 55 69 129.048 55 
70 129.048 55 71 129.048 55 74 129.048 55 
74.9524 130 55 63 131 54.0476 63 130.048 55 
62.0476 131 55 64 131 54.0476 64 130.048 55 
65 131 54.0476 65 130.048 55 74.9524 131 55 
62.0476 132 55 75 131.048 55 76 131.048 55 
76.9524 132 55 62.0476 133 55 77 132.048 55 
77 133 54.0476 78 133 54.0476 78 132.048 55 
79 133 54.0476 79 132.048 55 79.9524 133 55 
63 133.952 55 64 133.952 55 64.0476 134 55 
80 133.048 55 80.9524 134 55 64.0476 135 55 
81 134.048 55 81 135 54.0476 82 135 54.0476 
82 134.048 55 83 135 54.0476 83 134.048 55 
84 135 54.0476 84 134.048 55 84.9524 135 55 
65 135.952 55 66 135.952 55 67 135.952 55 
68 136 54.0476 67.0476 136 55 84.9524 136 55 
68 136.952 55 68.0476 137 55 85 136.048 55 
85 137 54.0476 85.9524 137 55 69 137.952 55 
70 137.952 55 70.0476 138 55 86 137.048 55 
86.9524 138 55 71 138.952 55 71 139 54.9524 
71.0476 139 55 86.9524 139 55 72 139.952 55 
73 139.952 55 74 139.952 55 75 139.952 55 
76 139.952 55 76.0476 140 55 87 139.048 55 
88 139.048 55 88.9524 140 55 76.0476 141 55 
88.9524 141 55 76.0476 142 55 88.9524 142 55 
77 142.952 55 77 143 54.9524 78 142.952 55 
78 143 54.9524 78.0476 143 55 88.9524 143 55 
78.0476 144 55 88.9524 144 55 79 144.952 55 
79 145 54.9524 80 144.952 55 80 145 54.9524 
81 144.952 55 81 145 54.9524 82 144.952 55 
82 145 54.9524 82.0476 145 55 88.9524 145 55 
83 145.952 55 84 145.952 55 85 145.952 55 
86 145.952 55 86.0476 146 55 88.9524 146 55 
86.0476 147 55 88.9524 147 55 87 147.952 55 
88 147.952 55 72 129 55.9524 73 129 55.9524 
66 130 55.9524 66.0476 130 56 67 129.048 56 
68 129.048 56 69 129.048 56 70 129.048 56 
71 129.048 56 72 129.048 56 73 129.048 56 
74 129.048 56 74.9524 130 56 63 131 55.9524 
64 131 55.9524 65 131 55.9524 65.0476 131 56 
66 130.048 56 74.9524 131 56 63 131.048 56 
62.0476 132 56 64 131.048 56 65 131.048 56 
75 131.048 56 76 131.048 56 77 132 55.0476 
77 131.048 56 78 132 55.0476 78 131.048 56 
79 132 55.0476 79 131.048 56 80 132 55.0476 
80 131.048 56 80.9524 132 56 62.0476 133 56 
80 133 55.0476 80.9524 133 56 63 133.952 56 
64 133.952 56 64.0476 134 56 81 134 55.0476 
81 133.048 56 82 134 55.0476 82 133.048 56 
83 134 55.0476 83 133.048 56 84 134 55.0476 
84 133.048 56 85 134 55.0476 85 133.048 56 
86 134 55.0476 86 133.048 56 86.9524 134 56 
64.0476 135 56 85 135 55.0476 86 135 55.0476 
86.9524 135 56 65 135.952 56 66 135.952 56 
67 136 55.0476 66.0476 136 56 85 136 55.0476 
86 136 55.0476 86.9524 136 56 67 137 55.0476 
66.0476 137 56 68 137 55.0476 86 137 55.0476 
86.9524 137 56 67 137.952 56 68 137.952 56 
69 137.952 56 70 137.952 56 71 137.952 56 
71 138 55.9524 72 137.952 56 72 138 55.9524 
72.0476 138 56 86.9524 138 56 72 139 55.9524 
72.0476 139 56 86.9524 139 56 73 139.952 56 
74 139.952 56 75 139.952 56 76 139.952 56 
77 139.952 56 77 140 55.9524 78 139.952 56 
78 140 55.9524 78.0476 140 56 87 139.048 56 
88 139.048 56 88.9524 140 56 77 141 55.9524 
78 141 55.9524 78.0476 141 56 88.9524 141 56 
77 142 55.9524 78 142 55.9524 79 141.952 56 
79 142 55.9524 80 141.952 56 80 142 55.9524 
81 141.952 56 81 142 55.9524 82 141.952 56 
82 142 55.9524 82.0476 142 56 88.9524 142 56 
79 143 55.9524 80 143 55.9524 81 143 55.9524 
82 143 55.9524 82.0476 143 56 88.9524 143 56 
79 144 55.9524 80 144 55.9524 81 144 55.9524 
82 144 55.9524 82.0476 144 56 88.9524 144 56 
82.0476 145 56 88.9524 145 56 83 145.952 56 
84 145.952 56 85 145.952 56 86 145.952 56 
86.0476 146 56 88.9524 146 56 86.0476 147 56 
88.9524 147 56 87 147.952 56 88 147.952 56 
67 129 56.0476 67 128.048 57 66.0476 129 57 
68 129 56.0476 68 128.048 57 69 129 56.0476 
69 128.048 57 70 129 56.0476 70 128.048 57 
[...]
POINT_DATA 2064
SCALARS scalars float
LOOKUP_TABLE default
1 1 1 1 1 1 1 1 1 
1 1 1 1 1 1 1 1 1 
1 1 1 1 1 1 1 1 1 
1 1 1 1 1 1 1 1 1 
1 1 1 1 1 1 1 1 1 
1 1 1 1 1 1 1 1 1 
1 1 1 1 1 1 1 1 1 
1 1 1 1 1 1 1 1 1 
1 1 1 1 1 1 1 1 1 
1 1 1 1 1 1 1 1 1 
1 1 1 1 1 1 1 1 1 
1 1 1 1 1 1 1 1 1 
1 1 1 1 1 1 1 1 1 
1 1 1 1 1 1 1 1 1 
1 1 1 1 1 1 1 1 1 
1 1 1 1 1 1 1 1 1 
1 1 1 1 1 1 1 1 1 
1 1 1 1 1 1 1 1 1 
1 1 1 1 1 1 1 1 1 
1 1 1 1 1 1 1 1 1 
1 1 1 1 1 1 1 1 1 
1 1 1 1 1 1 1 1 1 
1 1 1 1 1 1 1 1 1 
1 1 1 1 1 1 1 1 1 
1 1 1 1 1 1 1 1 1 
1 1 1 1 1 1 1 1 1 
1 1 1 1 1 1 1 1 1 
1 1 1 1 1 1 1 1 1 
1 1 1 1 1 1 1 1 1 
1 1 1 1 1 1 1 1 1 
1 1 1 1 1 1 1 1 1 
1 1 1 1 1 1 1 1 1 
1 1 1 1 1 1 1 1 1 
1 1 1 1 1 1 1 1 1 
1 1 1 1 1 1 1 1 1 
1 1 1 1 1 1 1 1 1 
1 1 1 1 1 1 1 1 1 
1 1 1 1 1 1 1 1 1 
1 1 1 1 1 1 1 1 1 
1 1 1 1 1 1 1 1 1 
1 1 1 1 1 1 1 1 1 
1 1 1 1 1 1 1 1 1 
1 1 1 1 1 1 1 1 1 
1 1 1 1 1 1 1 1 1 
1 1 1 1 1 1 1 1 1 
1 1 1 1 1 1 1 1 1 
1 1 1 1 1 1 1 1 1 
1 1 1 1 1 1 1 1 1 
1 1 1 1 1 1 1 1 1 
1 1 1 1 1 1 1 1 1 
1 1 1 1 1 1 1 1 1 
1 1 1 1 1 1 1 1 1 
1 1 1 1 1 1 1 1 1 
1 1 1 1 1 1 1 1 1 
1 1 1 1 1 1 1 1 1 
1 1 1 1 1 1 1 1 1 
1 1 1 1 1 1 1 1 1 
1 1 1 1 1 1 1 1 1 
1 1 1 1 1 1 1 1 1 
1 1 1 1 1 1 1 1 1 
1 1 1 1 1 1 1 1 1 
1 1 1 1 1 1 1 1 1 
1 1 1 1 1 1 1 1 1 
1 1 1 1 1 1 1 1 1 
1 1 1 1 1 1 1 1 1 
1 1 1 1 1 1 1 1 1 
1 1 1 1 1 1 1 1 1 
1 1 1 1 1 1 1 1 1 
1 1 1 1 1 1 1 1 1 
1 1 1 1 1 1 1 1 1 
1 1 1 1 1 1 1 1 1 
1 1 1 1 1 1 1 1 1 
1 1 1 1 1 1 1 1 1 
1 1 1 1 1 1 1 1 1 
1 1 1 1 1 1 1 1 1 
1 1 1 1 1 1 1 1 1 
1 1 1 1 1 1 1 1 1 
1 1 1 1 1 1 1 1 1 
1 1 1 1 1 1 1 1 1 
1 1 1 1 1 1 1 1 1 
1 1 1 1 1 1 1 1 1 
1 1 1 1 1 1 1 1 1 
1 1 1 1 1 1 1 1 1 
1 1 1 1 1 1 1 1 1 
1 1 1 1 1 1 1 1 1 
1 1 1 1 1 1 1 1 1 
1 1 1 1 1 1 1 1 1 
1 1 1 1 1 1 1 1 1 
1 1 1 1 1 1 1 1 1 
1 1 1 1 1 1 1 1 1 
1 1 1 1 1 1 1 1 1 
1 1 1 1 1 1 1 1 1 
1 1 1 1 1 1 1 1 1 
1 1 1 1 1 1 1 1 1 
1 1 1 1 1 1 1 1 1 
1 1 1 1 1 1 1 1 1 
1 1 1 1 1 1 1 1 1 
1 1 1 1 1 1 1 1 1 
1 1 1 1 1 1 1 1 1 
1 1 1 1 1 1 1 1 1 
1 1 1 1 1 1 1 1 1 
1 1 1 1 1 1 1 1 1 
1 1 1 1 1 1 1 1 1 
1 1 1 1 1 1 1 1 1 
1 1 1 1 1 1 1 1 1 
1 1 1 1 1 1 1 1 1 
1 1 1 1 1 1 1 1 1 
1 1 1 1 1 1 1 1 1 
1 1 1 1 1 1 1 1 1 
1 1 1 1 1 1 1 1 1 
1 1 1 1 1 1 1 1 1 
1 1 1 1 1 1 1 1 1 
1 1 1 1 1 1 1 1 1 
1 1 1 1 1 1 1 1 1 
1 1 1 1 1 1 1 1 1 
1 1 1 1 1 1 1 1 1 
1 1 1 1 1 1 1 1 1 
1 1 1 1 1 1 1 1 1 
1 1 1 1 1 1 1 1 1 
1 1 1 1 1 1 1 1 1 
1 1 1 1 1 1 1 1 1 
1 1 1 1 1 1 1 1 1 
1 1 1 1 1 1 1 1 1 
1 1 1 1 1 1 1 1 1 
1 1 1 1 1 1 1 1 1 
1 1 1 1 1 1 1 1 1 
1 1 1 1 1 1 1 1 1 
1 1 1 1 1 1 1 1 1 
1 1 1 1 1 1 1 1 1 
1 1 1 1 1 1 1 1 1 
1 1 1 1 1 1 1 1 1 
1 1 1 1 1 1 1 1 1 
1 1 1 1 1 1 1 1 1 
1 1 1 1 1 1 1 1 1 
1 1 1 1 1 1 1 1 1 
1 1 1 1 1 1 1 1 1 
1 1 1 1 1 1 1 1 1 
1 1 1 1 1 1 1 1 1 
1 1 1 1 1 1 1 1 1 
1 1 1 1 1 1 1 1 1 
1 1 1 1 1 1 1 1 1 
1 1 1 1 1 1 1 1 1 
1 1 1 1 1 1 1 1 1 
1 1 1 1 1 1 1 1 1 
1 1 1 1 1 1 1 1 1 
1 1 1 1 1 1 1 1 1 
1 1 1 1 1 1 1 1 1 
1 1 1 1 1 1 1 1 1 
1 1 1 1 1 1 1 1 1 
1 1 1 1 1 1 1 1 1 
1 1 1 1 1 1 1 1 1 
1 1 1 1 1 1 1 1 1 
1 1 1 1 1 1 1 1 1 
1 1 1 1 1 1 1 1 1 
1 1 1 1 1 1 1 1 1 
1 1 1 1 1 1 1 1 1 
1 1 1 1 1 1 1 1 1 
1 1 1 1 1 1 1 1 1 
1 1 1 1 1 1 1 1 1 
1 1 1 1 1 1 1 1 1 
1 1 1 1 1 1 1 1 1 
1 1 1 1 1 1 1 1 1 
1 1 1 1 1 1 1 1 1 
1 1 1 1 1 1 1 1 1 
1 1 1 1 1 1 1 1 1 
1 1 1 1 1 1 1 1 1 
1 1 1 1 1 1 1 1 1 
1 1 1 1 1 1 1 1 1 
1 1 1 1 1 1 1 1 1 
1 1 1 1 1 1 1 1 1 
1 1 1 1 1 1 1 1 1 
1 1 1 1 1 1 1 1 1 
1 1 1 1 1 1 1 1 1 
1 1 1 1 1 1 1 1 1 
1 1 1 1 1 1 1 1 1 
1 1 1 1 1 1 1 1 1 
1 1 1 1 1 1 1 1 1 
1 1 1 1 1 1 1 1 1 
1 1 1 1 1 1 1 1 1 
1 1 1 1 1 1 1 1 1 
1 1 1 1 1 1 1 1 1 
1 1 1 1 1 1 1 1 1 
1 1 1 1 1 1 1 1 1 
1 1 1 1 1 1 1 1 1 
1 1 1 1 1 1 1 1 1 
1 1 1 1 1 1 1 1 1 
1 1 1 1 1 1 1 1 1 
1 1 1 1 1 1 1 1 1 
1 1 1 1 1 1 1 1 1 
1 1 1 1 1 1 1 1 1 
1 1 1 1 1 1 1 1 1 
1 1 1 1 1 1 1 1 1 
1 1 1 1 1 1 1 1 1 
1 1 1 1 1 1 1 1 1 
1 1 1 1 1 1 1 1 1 
1 1 1 1 1 1 1 1 1 
1 1 1 1 1 1 1 1 1 
1 1 1 1 1 1 1 1 1 
1 1 1 1 1 1 1 1 1 
1 1 1 1 1 1 1 1 1 
1 1 1 1 1 1 1 1 1 
1 1 1 1 1 1 1 1 1 
1 1 1 1 1 1 1 1 1 
1 1 1 1 1 1 1 1 1 
1 1 1 1 1 1 1 1 1 
1 1 1 1 1 1 1 1 1 
1 1 1 1 1 1 1 1 1 
1 1 1 1 1 1 1 1 1 
1 1 1 1 1 1 1 1 1 
1 1 1 1 1 1 1 1 1 
1 1 1 1 1 1 1 1 1 
1 1 1 1 1 1 1 1 1 
1 1 1 1 1 1 1 1 1 
1 1 1 1 1 1 1 1 1 
1 1 1 1 1 1 1 1 1 
1 1 1 1 1 1 1 1 1 
1 1 1 1 1 1 1 1 1 
1 1 1 1 1 1 1 1 1 
1 1 1 1 1 1 1 1 1 
1 1 1 1 1 1 1 1 1 
1 1 1 1 1 1 1 1 1 
1 1 1 1 1 1 1 1 1 
1 1 1 1 1 1 1 1 1 
1 1 1 1 1 1 1 1 1 
1 1 1 1 1 1 1 1 1 
1 1 1 1 1 1 1 1 1 
1 1 1 1 1 1 1 1 1 
1 1 1 1 1 1 1 1 1 
1 1 1 1 1 1 1 1 1 
1 1 1 
NORMALS normals float
-0.0475114 -0.0475114 -0.99774 -0.0336527 -0.706706 -0.706706 -0.706706 -0.0336527 -0.706706 
0.0475114 -0.0475114 -0.99774 0.0475114 -0.99774 -0.0475114 0.99774 -0.0475114 -0.0475114 
-0.0475114 0.0475114 -0.99774 -0.706706 0.0336527 -0.706706 0.0475114 0.0475114 -0.99774 
0.59564 -0.538912 -0.59564 -0.0475114 0.99774 -0.0475114 -0.538912 0.59564 -0.59564 
0.538912 -0.59564 -0.59564 -0.59564 0.538912 -0.59564 -0.0475114 -0.0475114 -0.99774 
0 -0.0475652 -0.998868 0 -0.707107 -0.707107 0 -0.0475652 -0.998868 
0 -0.707107 -0.707107 0.0475652 0 -0.998868 0.0498755 -0.997509 -0.0498755 
0.998868 0 -0.0475652 -0.0475114 0.0475114 -0.99774 -0.706706 0.0336527 -0.706706 
0 0.0475652 -0.998868 0.0475114 0.0475114 -0.99774 0.57735 0.57735 -0.57735 
0.58651 0.558581 -0.58651 -0.0475114 0.99774 -0.0475114 0 0.707107 -0.707107 
0.0475114 0.99774 -0.0475114 0 -0.0475652 -0.998868 0 -0.707107 -0.707107 
-0.558581 -0.58651 -0.58651 0.689246 -0.0344623 -0.723708 -0.0475114 -0.0475114 -0.99774 
-0.0336527 -0.706706 -0.706706 -0.706706 -0.0336527 -0.706706 0 0 -1 
-0.567733 -0.567733 -0.59612 0.0475652 0 -0.998868 0.707107 0 -0.707107 
0 0 -1 -0.567733 -0.567733 -0.59612 0 0 -1 
0 0 -1 0 0 -1 0 0 -1 
0 -0.689655 -0.724138 0 -0.0475652 -0.998868 0 -0.707107 -0.707107 
0 -0.707107 -0.707107 0.558581 -0.58651 -0.58651 -0.0475652 0 -0.998868 
-0.0344623 -0.689246 -0.723708 -0.707107 0 -0.707107 0 -0.0475652 -0.998868 
0 -0.707107 -0.707107 0 0 -1 0 -0.689655 -0.724138 
0 0 -1 0 -0.689655 -0.724138 0 0 -1 
-0.567733 -0.567733 -0.59612 0 0.0475652 -0.998868 0 0 -1 
0 0 -1 0 0.0475652 -0.998868 0 -0.689655 -0.724138 
0 0 -1 0 0 -1 0.57735 -0.57735 -0.57735 
0.0336527 -0.706706 -0.706706 0.57735 -0.57735 -0.57735 -0.58651 0.558581 -0.58651 
-0.558581 0.58651 -0.58651 0 0.0475652 -0.998868 0.558581 0.58651 -0.58651 
0.567733 0.567733 -0.59612 0 0.689655 -0.724138 0 0.689655 -0.724138 
0 0.707107 -0.707107 0 0.689655 -0.724138 0 0.707107 -0.707107 
-0.567733 0.567733 -0.59612 -0.58651 0.558581 -0.58651 -0.707107 0 -0.707107 
0.58651 -0.58651 -0.558581 0.58651 -0.58651 -0.558581 0 0.707107 -0.707107 
-0.707107 0 -0.707107 -0.707107 0 -0.707107 0.558581 -0.58651 -0.58651 
0.558581 -0.58651 -0.58651 0 -0.707107 -0.707107 0 -0.707107 -0.707107 
0.0336527 -0.706706 -0.706706 0.0336527 -0.706706 -0.706706 0.57735 -0.57735 -0.57735 
0 0 -1 -0.567733 -0.567733 -0.59612 0 0.724138 -0.689655 
0 0.689655 -0.724138 -0.58651 0.558581 -0.58651 -0.0344623 0.689246 -0.723708 
0.58651 -0.58651 -0.558581 0.58651 -0.58651 -0.558581 -0.0475114 -0.0475114 -0.99774 
-0.0336527 -0.706706 -0.706706 -0.706706 -0.0336527 -0.706706 0 0 -1 
-0.567733 -0.567733 -0.59612 0.0475114 0.0475114 -0.99774 0.0475114 0.0475114 -0.99774 
-0.706706 0.0336527 -0.706706 -0.0475114 0.0475114 -0.99774 0.558581 0.58651 -0.58651 
0.567733 -0.567733 -0.59612 0 0 -1 0 0 -1 
0 -0.689655 -0.724138 0.0475652 0 -0.998868 0.0344623 -0.689246 -0.723708 
0.707107 0 -0.707107 0 0.0475652 -0.998868 -0.689246 0.0344623 -0.723708 
0.558581 0.58651 -0.58651 0.567733 0.567733 -0.59612 0.0336527 0.706706 -0.706706 
-0.0336527 0.706706 -0.706706 -0.567733 0.59612 -0.567733 0 0.689655 -0.724138 
-0.567733 0.567733 -0.59612 0.567733 0.567733 -0.59612 0.567733 0.59612 -0.567733 
0 0.707107 -0.707107 0 0.689655 -0.724138 0 0.689655 -0.724138 
0.0344623 0.689246 -0.723708 0 0.707107 -0.707107 0 0 -1 
-0.689655 0 -0.724138 0.689655 0 -0.724138 0 0 -1 
-0.689655 0 -0.724138 0.689655 0 -0.724138 0 0 -1 
-0.689655 0 -0.724138 0.689655 0 -0.724138 0 0.0475652 -0.998868 
-0.689246 0.0344623 -0.723708 0.689246 0.0344623 -0.723708 0 0.707107 -0.707107 
0 -0.707107 -0.707107 0 -0.998868 -0.0475652 -0.689246 -0.723708 -0.0344623 
0.558581 -0.58651 -0.58651 -0.0475114 -0.0475114 -0.99774 -0.0475114 -0.99774 -0.0475114 
-0.57735 -0.57735 -0.57735 0 -0.0475652 -0.998868 0 -0.998868 -0.0475652 
0 -0.0475652 -0.998868 0 -0.998868 -0.0475652 0 -0.707107 -0.707107 
0 -0.998868 -0.0475652 -0.558581 -0.58651 -0.58651 -0.689246 -0.723708 -0.0344623 
0.689246 -0.0344623 -0.723708 0.558581 -0.58651 -0.58651 0.0475114 -0.0475114 -0.99774 
0.0475114 -0.99774 -0.0475114 0.99774 -0.0475114 -0.0475114 -0.0475114 -0.0475114 -0.99774 
-0.57735 -0.57735 -0.57735 -0.57735 -0.57735 -0.57735 0 0 -1 
0 0 -1 -0.689655 0 -0.724138 0.689655 0 -0.724138 
0.0344623 -0.689246 -0.723708 0.723708 -0.689246 -0.0344623 -0.0475114 -0.0475114 -0.99774 
-0.0336527 -0.706706 -0.706706 -0.99774 -0.0475114 -0.0475114 0 -0.0475652 -0.998868 
0 -0.707107 -0.707107 0 -0.707107 -0.707107 -0.558581 -0.58651 -0.58651 
0 -0.689655 -0.724138 0 -0.689655 -0.724138 0 -0.689655 -0.724138 
-0.567733 -0.567733 -0.59612 0 0 -1 0 -0.689655 -0.724138 
0.558581 -0.58651 -0.58651 0.689246 -0.723708 -0.0344623 0.0475114 -0.0475114 -0.99774 
0.0475114 -0.99774 -0.0475114 0.99774 -0.0475114 -0.0475114 -0.0475114 0.0475114 -0.99774 
-0.99774 0.0475114 -0.0475114 -0.689246 0.0344623 -0.723708 0.58651 -0.558581 -0.58651 
0.58651 -0.558581 -0.58651 -0.0475114 0.99774 -0.0475114 -0.689246 0.723708 -0.0344623 
-0.58651 0.558581 -0.58651 -0.723708 0.689246 -0.0344623 0.567733 0.567733 -0.59612 
0 0.689655 -0.724138 0 0.689655 -0.724138 0 0.689655 -0.724138 
0 0.689655 -0.724138 0 0.689655 -0.724138 -0.567733 0.567733 -0.59612 
0.558581 -0.58651 -0.58651 0.558581 -0.58651 -0.58651 0 -0.707107 -0.707107 
0 -0.707107 -0.707107 0 -0.707107 -0.707107 0 -0.707107 -0.707107 
0.0475114 -0.0475114 -0.99774 0.0475114 -0.99774 -0.0475114 0.99774 -0.0475114 -0.0475114 
-0.0475114 0.0475114 -0.99774 -0.99774 0.0475114 -0.0475114 0 0.707107 -0.707107 
0 0.0475652 -0.998868 0 0.0475652 -0.998868 0 0 -1 
0 0 -1 0 0 -1 0 0 -1 
-0.689655 0 -0.724138 0.58651 -0.558581 -0.58651 0.58651 -0.558581 -0.58651 
-0.0475114 0.99774 -0.0475114 0 0.998868 -0.0475652 0 0.998868 -0.0475652 
-0.558581 0.58651 -0.58651 -0.58651 0.558581 -0.58651 -0.0475652 0 -0.998868 
0 0 -1 0 0 -1 0 -0.689655 -0.724138 
-0.567733 -0.567733 -0.59612 0 0.689655 -0.724138 0.558581 -0.58651 -0.58651 
0.558581 -0.58651 -0.58651 0 -0.707107 -0.707107 0 -0.707107 -0.707107 
0 -0.707107 -0.707107 0 -0.707107 -0.707107 0.0475114 -0.0475114 -0.99774 
0.0336527 -0.706706 -0.706706 0.99774 -0.0475114 -0.0475114 -0.0475114 0.0475114 -0.99774 
-0.99774 0.0475114 -0.0475114 0 0.0475652 -0.998868 -0.689655 0 -0.724138 
0 0 -1 0.707107 0 -0.707107 0.58651 -0.558581 -0.58651 
-0.0475114 0.99774 -0.0475114 -0.689246 0.723708 -0.0344623 -0.723708 0.689246 -0.0344623 
-0.707107 0 -0.707107 0.567733 0.567733 -0.59612 0 0.689655 -0.724138 
0 0 -1 0 0.689655 -0.724138 -0.567733 0.567733 -0.59612 
0.567733 0.567733 -0.59612 0 0.689655 -0.724138 0 0.689655 -0.724138 
0 0.689655 -0.724138 0 0.689655 -0.724138 0 0 -1 
0.558581 -0.58651 -0.58651 0 -0.0475652 -0.998868 0.0475114 -0.0475114 -0.99774 
0.0475114 -0.99774 -0.0475114 0.99774 -0.0475114 -0.0475114 -0.0498755 0.0498755 -0.997509 
-0.998868 0.0475652 0 0 0.707107 -0.707107 0 0.0475652 -0.998868 
0 0.0475652 -0.998868 0 0.0475652 -0.998868 0 0.0475652 -0.998868 
-0.689655 0 -0.724138 0.689655 0 -0.724138 0 0 -1 
0 0 -1 0 0 -1 0 0 -1 
0 0 -1 0 0 -1 0.0475652 0 -0.998868 
0.723708 -0.689246 -0.0344623 -0.0475652 0.998868 0 0 0.998868 -0.0475652 
0 0.998868 -0.0475652 0 0.998868 -0.0475652 0 0.998868 -0.0475652 
-0.689246 0.723708 -0.0344623 -0.723708 0.689246 -0.0344623 -0.707107 0 -0.707107 
0.689655 0 -0.724138 0 0 -1 0 0 -1 
0 0 -1 0 0 -1 0 0 -1 
0 0 -1 0 0 -1 0.689246 -0.723708 -0.0344623 
0 -0.0475652 -0.998868 0.0475114 -0.0475114 -0.99774 0.0475114 -0.99774 -0.0475114 
0.99774 -0.0475114 -0.0475114 -0.707107 0 -0.707107 -0.998868 0 -0.0475652 
0.689655 0 -0.724138 0 0 -1 0 0 -1 
0 0 -1 0 0 -1 0 0 -1 
0 0 -1 0 0 -1 0 0 -1 
0.0475652 0 -0.998868 0.998868 0 -0.0475652 -0.707107 0 -0.707107 
-0.998868 0 -0.0475652 0.689655 0 -0.724138 0 0 -1 
0 0 -1 0 0 -1 0 0 -1 
0 0 -1 0 0 -1 0 0 -1 
0 0 -1 0.0475652 0 -0.998868 0.998868 0 -0.0475652 
-0.0498755 0.0498755 -0.997509 -0.998868 0.0475652 0 0 0.724138 -0.689655 
0 0 -1 0 0 -1 0 0 -1 
0 0 -1 0 0 -1 0 0 -1 
0 0 -1 0 0 -1 0 0 -1 
0.0475652 0 -0.998868 0.998868 0 -0.0475652 -0.0475652 0.998868 0 
-0.689655 0.724138 0 -0.723708 0.689246 -0.0344623 -0.0475652 0 -0.998868 
0 0 -1 0 0 -1 0 0 -1 
0 0 -1 0 0 -1 0 0 -1 
0 0 -1 0 0 -1 0.0475652 0 -0.998868 
0.998868 0 -0.0475652 -0.0498755 0.0498755 -0.997509 -0.998868 0.0475652 0 
0 0.0499376 -0.998752 0 0.0499376 -0.998752 0 0.0499376 -0.998752 
0 0.0475652 -0.998868 0 0.0475652 -0.998868 0 0.0475652 -0.998868 
0 0.0475652 -0.998868 0 0 -1 0.0475652 0 -0.998868 
0.998868 0 -0.0475652 -0.0475652 0.998868 0 0 1 0 
0 1 0 0 1 0 0 0.998868 -0.0475652 
0 0.998868 -0.0475652 0 0.998868 -0.0475652 -0.689246 0.723708 -0.0344623 
-0.723708 0.689246 -0.0344623 -0.0475652 0 -0.998868 0.0475652 0 -0.998868 
0.998868 0 -0.0475652 -0.0475114 0.0475114 -0.99774 -0.99774 0.0475114 -0.0475114 
0.0475114 0.0475114 -0.99774 0.99774 0.0475114 -0.0475114 -0.0475114 0.99774 -0.0475114 
0.0475114 0.99774 -0.0475114 -0.0475114 -0.99774 0.0475114 -0.706706 -0.706706 0.0336527 
0.58651 -0.58651 -0.558581 0.0475652 -0.998868 0 0.707107 -0.707107 0 
-0.58651 -0.58651 -0.558581 -0.0475652 -0.998868 0 -0.707107 -0.707107 0 
0 -1 0 0 -1 0 0 -1 0 
0 -1 0 -0.689655 -0.724138 0 0.707107 -0.707107 0 
0.998868 -0.0475652 0 -0.0344623 -0.723708 -0.689246 -0.0475652 -0.998868 0 
-0.998868 -0.0475652 0 0 -0.724138 -0.689655 0 -1 0 
-0.567733 -0.59612 -0.567733 -0.689655 -0.724138 0 0.724138 -0.689655 0 
-1 0 0 0.689655 -0.724138 0 0.0475652 -0.998868 0 
0.58651 -0.58651 -0.558581 -0.998868 0.0475652 0 0.558581 -0.58651 -0.58651 
0.558581 -0.58651 -0.58651 0 -0.707107 -0.707107 0 -0.707107 -0.707107 
0.0336527 -0.706706 -0.706706 0.0336527 -0.706706 -0.706706 0.57735 -0.57735 -0.57735 
-0.0475652 0.998868 0 -0.689655 0.724138 0 -0.724138 0.689655 0 
0.58651 -0.58651 -0.558581 0.58651 -0.58651 -0.558581 -0.998868 0.0475652 0 
0.558581 -0.58651 -0.58651 0.558581 -0.58651 -0.58651 0 -0.707107 -0.707107 
0 -0.707107 -0.707107 0 -0.707107 -0.707107 0 -0.707107 -0.707107 
0.0336527 -0.706706 -0.706706 0.0336527 -0.706706 -0.706706 0.706706 -0.0336527 -0.706706 
-0.0475652 0.998868 0 0 1 0 -0.567733 0.59612 -0.567733 
-0.57735 0.57735 -0.57735 -0.57735 0.57735 -0.57735 0.59612 -0.567733 -0.567733 
-0.57735 0.57735 -0.57735 -0.58651 0.58651 -0.558581 0.57735 -0.57735 -0.57735 
0.57735 -0.57735 -0.57735 0.57735 -0.57735 -0.57735 -0.0475652 0.998868 0 
-0.689655 0.724138 0 -0.706706 0.706706 0.0336527 0.58651 -0.58651 -0.558581 
0.998868 -0.0475652 0 -0.57735 0.57735 0.57735 -0.58651 0.58651 0.558581 
-0.57735 0.57735 0.57735 0.724138 -0.689655 0 -0.0475114 0.99774 0.0475114 
0 1 0 0 1 0 0 1 0 
-0.689655 0.724138 0 -0.723708 0.689246 0.0344623 0.689655 -0.724138 0 
0.0475652 -0.998868 0 0.998868 -0.0475652 0 -0.998868 0 0.0475652 
1 0 0 -0.99774 0.0475114 0.0475114 1 0 0 
-0.0336527 0.706706 0.706706 -0.0344623 0.723708 0.689246 -0.558581 0.58651 0.58651 
-0.567733 0.59612 0.567733 -0.58651 0.558581 0.58651 1 0 0 
-0.99774 0.0475114 0.0475114 1 0 0 -0.0336527 0.706706 0.706706 
-0.0344623 0.723708 0.689246 0 0.707107 0.707107 0 0.724138 0.689655 
0 0.707107 0.707107 0 0.724138 0.689655 -0.558581 0.58651 0.58651 
-0.567733 0.59612 0.567733 -0.58651 0.58651 0.558581 1 0 0 
-0.0475652 0.998868 0 0 1 0 0 1 0 
-0.689655 0.724138 0 -0.724138 0.689655 0 1 0 0 
-0.998868 0.0475652 0 0.998868 0.0475652 0 -0.0475652 0.998868 0 
0.0475652 0.998868 0 -0.0475114 -0.99774 0.0475114 0.0475652 -0.998868 0 
-0.58651 -0.58651 0.558581 -0.58651 -0.58651 0.558581 -0.0344623 -0.723708 -0.689246 
0 -0.724138 -0.689655 0 -0.724138 -0.689655 0 -0.724138 -0.689655 
0 -0.724138 -0.689655 0 -1 0 0 -1 0 
0.0475652 -0.998868 0 0.998868 -0.0475652 0 -0.0344623 -0.723708 0.689246 
0 -0.724138 0.689655 -0.567733 -0.59612 0.567733 -0.58651 -0.58651 0.558581 
-0.58651 -0.58651 0.558581 0.724138 -0.689655 0 -0.0344623 -0.723708 0.689246 
-0.998868 -0.0475652 0 0 -0.724138 0.689655 -0.567733 -0.59612 0.567733 
0.689655 -0.724138 0 0 -1 0 0.558581 -0.58651 -0.58651 
0 -0.998868 -0.0475652 0 -0.707107 -0.707107 0 -0.998868 -0.0475652 
0 -0.707107 -0.707107 0 -0.998868 -0.0475652 0.0475114 -0.0475114 -0.99774 
0.0475114 -0.99774 -0.0475114 0.99774 -0.0475114 -0.0475114 -0.99774 0.0475114 0.0475114 
0.58651 -0.558581 -0.58651 0.723708 -0.689246 -0.0344623 -0.0475114 0.99774 0.0475114 
-0.689655 0.724138 0 -0.724138 0.689655 0 0.558581 -0.58651 -0.58651 
0.689246 -0.723708 -0.0344623 0 -0.707107 -0.707107 0 -0.998868 -0.0475652 
0 -0.707107 -0.707107 0 -0.998868 -0.0475652 0 -0.707107 -0.707107 
0 -0.998868 -0.0475652 0 -0.0475652 -0.998868 0 -0.998868 -0.0475652 
0.0475114 -0.0475114 -0.99774 0.0475114 -0.99774 -0.0475114 0.99774 -0.0475114 -0.0475114 
-0.998868 0.0475652 0 0.689655 0 -0.724138 0.0475652 0 -0.998868 
0.998868 0 -0.0475652 -0.0475652 0.998868 0 -0.689655 0.724138 0 
-0.58651 0.558581 -0.58651 -0.723708 0.689246 -0.0344623 0.567733 -0.567733 -0.59612 
0.0475652 0 -0.998868 0.998868 0 -0.0475652 -0.0475114 0.0475114 -0.99774 
-0.99774 0.0475114 -0.0475114 -0.558581 0.58651 -0.58651 0.58651 -0.558581 -0.58651 
0.998868 0 -0.0475652 -0.0475114 0.99774 -0.0475114 0 0.998868 -0.0475652 
0 1 0 0 1 0 0 0.724138 0.689655 
-0.0336527 0.706706 0.706706 -0.567733 0.59612 0.567733 -0.567733 0.567733 0.59612 
-0.59612 0.567733 0.567733 1 0 0 -0.706706 0.0336527 0.706706 
-0.723708 0.0344623 0.689246 0.59612 -0.567733 -0.567733 -0.0475652 0.998868 0 
0 1 0 0 1 0 0 1 0 
0 0.724138 0.689655 -0.0344623 0.689246 0.723708 -0.567733 0.59612 0.567733 
-0.567733 0.567733 0.59612 -0.59612 0.567733 0.567733 0.567733 -0.59612 -0.567733 
0.0475652 -0.998868 0 0.998868 -0.0475652 0 -0.0475652 0 0.998868 
-0.689655 0 0.724138 -0.723708 0.0344623 0.689246 1 0 0 
-0.0475114 0.0475114 0.99774 0 0.0475652 0.998868 -0.0344623 0.723708 0.689246 
0 0.689655 0.724138 0 0.724138 0.689655 0 0.689655 0.724138 
0 0.724138 0.689655 0 0.689655 0.724138 -0.567733 0.59612 0.567733 
-0.567733 0.567733 0.59612 -0.59612 0.567733 0.567733 1 0 0 
-0.0475652 0 0.998868 0 0 1 0 0 1 
-0.689655 0 0.724138 -0.724138 0 0.689655 1 0 0 
-0.0475114 0.0475114 0.99774 0 0.0475652 0.998868 0 0.0475652 0.998868 
-0.689246 0.0344623 0.723708 -0.724138 0 0.689655 1 0 0 
-0.998868 0.0475652 0 1 0 0 -0.0475652 0.998868 0 
0 1 0 0 1 0 -0.567733 0.59612 -0.567733 
-0.59612 0.567733 -0.567733 1 0 0 -0.723708 0.0344623 -0.689246 
0.998868 0.0475652 0 -0.0475652 0.998868 0 0.0344623 0.723708 -0.689246 
-0.0344623 -0.723708 -0.689246 -0.0475652 -0.998868 0 -0.998868 -0.0475652 0 
0 -0.724138 -0.689655 0 -1 0 0 -0.724138 -0.689655 
0 -1 0 0 -0.724138 -0.689655 0 -1 0 
0 -0.724138 -0.689655 0 -1 0 0 -1 0 
0 -1 0 0.0475652 -0.998868 0 0.0475652 -0.998868 0 
0.707107 -0.707107 0 -0.724138 -0.689655 0 0.707107 -0.707107 0 
0.998868 -0.0475652 0 -0.707107 -0.707107 0 -0.707107 -0.707107 0 
0.724138 -0.689655 0 -0.0498755 -0.997509 0.0498755 -0.998868 0 0.0475652 
0 -0.998868 0.0475652 -0.689655 -0.724138 0 0.689655 -0.724138 0 
0 -1 0 0 -1 0 0 -1 0 
0 -1 0 0.0475652 -0.998868 0 0.998868 -0.0475652 0 
-0.58651 0.558581 0.58651 -0.57735 0.57735 0.57735 -0.58651 0.58651 0.558581 
0.724138 -0.689655 0 -0.707107 0.707107 0 -0.724138 0.689655 0 
0.689655 -0.724138 0 0 -1 0 0 -1 0 
0 -1 0 0 -1 0 0.0475652 -0.998868 0 
0.998868 -0.0475652 0 -0.998868 0.0475652 0 1 0 0 
-0.0475652 0.998868 0 -0.689655 0.724138 0 -0.724138 0.689655 0 
0.724138 0 -0.689655 -0.998868 0.0475652 0 0.724138 0 -0.689655 
-0.0475652 0.998868 0 0 1 0 0 1 0 
0 1 0 0 1 0 -0.689655 0.724138 0 