# vtk DataFile Version 3.0
vtk output
ASCII
DATASET POLYDATA
POINTS 1476 float
117 114 65.0132 117 113.013 66 116.013 114 66 
118 114 65.0132 118 113.013 66 119 114 65.0132 
119 113.013 66 120 114 65.0132 120 113.013 66 
120.987 114 66 116 115 65.0132 116 114.013 66 
115.013 115 66 117 115 65.0132 118 115 65.0132 
119 115 65.0132 120 115 65.0132 120.987 115 66 
115 116 65.0132 115 115.013 66 114.013 116 66 
116 116 65.0132 117 116 65.0132 118 116 65.0132 
119 116 65.0132 120 116 65.0132 120.987 116 66 
114 117 65.0132 114 116.013 66 113.013 117 66 
115 117 65.0132 116 117 65.0132 117 117 65.0132 
118 117 65.0132 119 117 65.0132 119.987 117 66 
120 116.987 66 113 118 65.0132 113 117.013 66 
112.013 118 66 114 118 65.0132 115 118 65.0132 
116 118 65.0132 117 118 65.0132 118 118 65.0132 
118.987 118 66 119 117.987 66 112 119 65.0132 
112 118.013 66 111.013 119 66 113 119 65.0132 
114 119 65.0132 115 119 65.0132 116 119 65.0132 
117 119 65.0132 118 119 65.0132 118.987 119 66 
111 120 65.0132 111 119.013 66 110.013 120 66 
112 120 65.0132 113 120 65.0132 114 120 65.0132 
115 120 65.0132 116 120 65.0132 117 120 65.0132 
118 120 65.0132 118.987 120 66 110 121 65.0132 
110 120.013 66 109.013 121 66 111 121 65.0132 
112 121 65.0132 113 121 65.0132 114 121 65.0132 
115 121 65.0132 116 121 65.0132 117 121 65.0132 
118 121 65.0132 118.987 121 66 109 122 65.0132 
109 121.013 66 108.013 122 66 110 122 65.0132 
111 122 65.0132 112 122 65.0132 113 122 65.0132 
114 122 65.0132 115 122 65.0132 116 122 65.0132 
117 122 65.0132 118 122 65.0132 118.987 122 66 
108 123 65.0132 108 122.013 66 107.013 123 66 
109 123 65.0132 110 123 65.0132 111 123 65.0132 
112 123 65.0132 113 123 65.0132 114 123 65.0132 
115 123 65.0132 116 123 65.0132 117 123 65.0132 
117.987 123 66 118 122.987 66 105 124 65.0132 
105 123.013 66 104.013 124 66 106 124 65.0132 
106 123.013 66 107 124 65.0132 107 123.013 66 
108 124 65.0132 109 124 65.0132 110 124 65.0132 
111 124 65.0132 112 124 65.0132 113 124 65.0132 
114 124 65.0132 115 124 65.0132 116 124 65.0132 
116.987 124 66 117 123.987 66 104 125 65.0132 
104 124.013 66 103.013 125 66 105 125 65.0132 
106 125 65.0132 107 125 65.0132 108 125 65.0132 
109 125 65.0132 110 125 65.0132 111 125 65.0132 
112 125 65.0132 113 125 65.0132 114 125 65.0132 
115 125 65.0132 116 125 65.0132 116.987 125 66 
103 126 65.0132 103 125.013 66 102.013 126 66 
104 126 65.0132 105 126 65.0132 106 126 65.0132 
107 126 65.0132 108 126 65.0132 109 126 65.0132 
110 126 65.0132 111 126 65.0132 112 126 65.0132 
113 126 65.0132 114 126 65.0132 115 126 65.0132 
116 126 65.0132 116.987 126 66 102 127 65.0132 
102 126.013 66 101.013 127 66 103 127 65.0132 
104 127 65.0132 105 127 65.0132 106 127 65.0132 
107 127 65.0132 108 127 65.0132 109 127 65.0132 
110 127 65.0132 111 127 65.0132 112 127 65.0132 
113 127 65.0132 114 127 65.0132 115 127 65.0132 
115.987 127 66 116 126.987 66 101 128 65.0132 
101 127.013 66 100.013 128 66 102 128 65.0132 
103 128 65.0132 104 128 65.0132 105 128 65.0132 
106 128 65.0132 107 128 65.0132 108 128 65.0132 
109 128 65.0132 110 128 65.0132 111 128 65.0132 
112 128 65.0132 113 128 65.0132 114 128 65.0132 
114.987 128 66 115 127.987 66 101 129 65.0132 
100.013 129 66 102 129 65.0132 103 129 65.0132 
104 129 65.0132 105 129 65.0132 106 129 65.0132 
107 129 65.0132 108 129 65.0132 109 129 65.0132 
110 129 65.0132 111 129 65.0132 112 129 65.0132 
113 129 65.0132 113.987 129 66 114 128.987 66 
101 130 65.0132 100.013 130 66 102 130 65.0132 
103 130 65.0132 104 130 65.0132 105 130 65.0132 
106 130 65.0132 107 130 65.0132 108 130 65.0132 
109 130 65.0132 110 130 65.0132 110.987 130 66 
111 129.987 66 112 129.987 66 113 129.987 66 
101 131 65.0132 100.013 131 66 102 131 65.0132 
103 131 65.0132 104 131 65.0132 105 131 65.0132 
106 131 65.0132 107 131 65.0132 108 131 65.0132 
109 131 65.0132 109.987 131 66 110 130.987 66 
101 131.987 66 102 131.987 66 103 131.987 66 
104 131.987 66 105 131.987 66 106 131.987 66 
107 131.987 66 108 131.987 66 109 131.987 66 
117 113 66.0132 117 112.013 67 116.013 113 67 
118 113 66.0132 118 112.013 67 119 113 66.0132 
119 112.013 67 119.987 113 67 116 114 66.0132 
116 113.013 67 115.013 114 67 120 113.013 67 
120.987 114 67 115 115 66.0132 115 114.013 67 
114.013 115 67 120.987 115 67 114 116 66.0132 
114 115.013 67 113.013 116 67 120.987 116 67 
113 117 66.0132 113 116.013 67 112.013 117 67 
119.987 117 67 120 116.987 67 112 118 66.0132 
112 117.013 67 111.013 118 67 118.987 118 67 
119 117.987 67 111 119 66.0132 111 118.013 67 
110.013 119 67 118.987 119 67 110 120 66.0132 
110 119.013 67 109.013 120 67 118.987 120 67 
109 121 66.0132 109 120.013 67 108.013 121 67 
118.987 121 67 108 122 66.0132 108 121.013 67 
107.013 122 67 118.987 122 67 106 123 66.0132 
106 122.013 67 105.013 123 67 107 123 66.0132 
107 122.013 67 117.987 123 67 118 122.987 67 
105 123.013 67 104.013 124 67 116.987 124 67 
117 123.987 67 104 124.013 67 103.013 125 67 
116.987 125 67 103 125.013 67 102.013 126 67 
116.987 126 67 102 126.013 67 101.013 127 67 
115.987 127 67 116 126.987 67 101 127.013 67 
100.013 128 67 114.987 128 67 115 127.987 67 
100.013 129 67 113.987 129 67 114 128.987 67 
100.013 130 67 110.987 130 67 111 129.987 67 
112 129.987 67 113 129.987 67 100.013 131 67 
109.987 131 67 110 130.987 67 101 131.987 67 
102 131.987 67 103 131.987 67 104 131.987 67 
105 131.987 67 106 132 66.0132 105.013 132 67 
106.987 132 67 107 131.987 67 108 131.987 67 
109 131.987 67 104 133 66.0132 104 132.013 67 
103.013 133 67 105 133 66.0132 105 132.013 67 
106 133 66.0132 106.987 133 67 104 134 66.0132 
103.013 134 67 104.987 134 67 105 133.987 67 
106 133.987 67 104 135 66.0132 103.013 135 67 
104.987 135 67 104 135.987 67 117 112 67.0132 
117 111.013 68 116.013 112 68 118 112 67.0132 
118 111.013 68 118.987 112 68 116 113 67.0132 
116 112.013 68 115.013 113 68 118.987 113 68 
119 113 67.9868 115 114 67.0132 115 113.013 68 
114.013 114 68 119 113.013 68 120 113.013 68 
120.987 114 68 114 115 67.0132 114 114.013 68 
113.013 115 68 120.987 115 68 113 116 67.0132 
113 115.013 68 112.013 116 68 120.987 116 68 
112 117 67.0132 112 116.013 68 111.013 117 68 
119.987 117 68 120 116.987 68 111 118 67.0132 
111 117.013 68 110.013 118 68 118.987 118 68 
119 117.987 68 110 119 67.0132 110 118.013 68 
109.013 119 68 118.987 119 68 109 120 67.0132 
109 119.013 68 108.013 120 68 118.987 120 68 
108 121 67.0132 108 120.013 68 107.013 121 68 
118.987 121 68 107 122 67.0132 107 121.013 68 
106.013 122 68 118.987 122 68 106 122.013 68 
105.013 123 68 117.987 123 68 118 122.987 68 
105 123.013 68 104.013 124 68 116.987 124 68 
117 123.987 68 104 124.013 68 103.013 125 68 
116.987 125 68 103 125.013 68 102.013 126 68 
116.987 126 68 102 126.013 68 101.013 127 68 
115.987 127 68 116 126.987 68 101 127.013 68 
100.013 128 68 114.987 128 68 115 127.987 68 
100.013 129 68 113.987 129 68 114 128.987 68 
100.013 130 68 110.987 130 68 111 129.987 68 
112 129.987 68 113 129.987 68 100.013 131 68 
109.987 131 68 110 130.987 68 101 132 67.0132 
100.013 132 68 102 132 67.0132 103 132 67.0132 
104 132 67.0132 105 132 67.0132 107 132 67.0132 
108 132 67.0132 108.987 132 68 109 131.987 68 
101 133 67.0132 100.013 133 68 102 133 67.0132 
103 133 67.0132 107 133 67.0132 108 133 67.0132 
108.987 133 68 101 133.987 68 102 133.987 68 
102.013 134 68 103 134 67.0132 105 134 67.0132 
106 134 67.0132 107 134 67.0132 108 134 67.0132 
108.987 134 68 103 135 67.0132 102.013 135 68 
105 135 67.0132 106 135 67.0132 107 135 67.0132 
107.987 135 68 108 134.987 68 103 135.987 68 
104 135.987 68 105 136 67.0132 104.013 136 68 
106 136 67.0132 106.987 136 68 107 135.987 68 
105 137 67.0132 104.013 137 68 105.987 137 68 
106 136.987 68 105 137.987 68 117 111.013 69 
116.013 112 69 118 111.013 69 118.987 112 69 
116 112.013 69 115.013 113 69 118.987 113 69 
115 113.013 69 114.013 114 69 119 113.013 69 
120 114 68.9868 119.987 114 69 114 114.013 69 
113.013 115 69 120 115 68.9868 119.987 115 69 
113 115.013 69 112.013 116 69 120 116 68.9868 
119.987 116 69 112 116.013 69 111.013 117 69 
119 117 68.9868 118.987 117 69 119 116.987 69 
111 117.013 69 110.013 118 69 118.987 118 69 
110 118.013 69 109.013 119 69 118.987 119 69 
109 119.013 69 108.013 120 69 118.987 120 69 
108 120.013 69 107.013 121 69 118 121 68.9868 
117.987 121 69 118 120.987 69 107 121.013 69 
106.013 122 69 118 122 68.9868 117.987 122 69 
106 122.013 69 105.013 123 69 117 123 68.9868 
116.987 123 69 117 122.987 69 105 123.013 69 
104.013 124 69 116.987 124 69 104 124.013 69 
103.013 125 69 116 125 68.9868 115.987 125 69 
116 124.987 69 103 125.013 69 102.013 126 69 
116 126 68.9868 115.987 126 69 102 126.013 69 
101.013 127 69 115 127 68.9868 114.987 127 69 
115 126.987 69 101 127.013 69 100.013 128 69 
114.987 128 69 100.013 129 69 113.987 129 69 
114 128.987 69 100.013 130 69 110.987 130 69 
111 129.987 69 112 129.987 69 113 129.987 69 
100.013 131 69 110 131 68.0132 110.987 131 69 
100.013 132 69 108.987 132 69 109 131.987 69 
110 131.987 69 100.013 133 69 108.987 133 69 
101 133.987 69 102 133.987 69 102.013 134 69 
108.987 134 69 102.013 135 69 107.987 135 69 
108 134.987 69 103 135.987 69 104 135.987 69 
104.013 136 69 106.987 136 69 107 135.987 69 
104.013 137 69 105.987 137 69 106 136.987 69 
105 137.987 69 117 111.013 70 116.013 112 70 
118 111.013 70 118.987 112 70 116 112.013 70 
115.013 113 70 118.987 113 70 115 113.013 70 
114.013 114 70 119 114 69.9868 118.987 114 70 
114 114.013 70 113.013 115 70 119 115 69.9868 
118.987 115 70 113 115.013 70 112.013 116 70 
119 116 69.9868 118.987 116 70 112 116.013 70 
111.013 117 70 118.987 117 70 111 117.013 70 
110.013 118 70 118.987 118 70 110 118.013 70 
109.013 119 70 118.987 119 70 109 119.013 70 
108.013 120 70 118.987 120 70 108 120.013 70 
107.013 121 70 117.987 121 70 118 120.987 70 
107 121.013 70 106.013 122 70 117 122 69.9868 
116.987 122 70 117 121.987 70 106 122.013 70 
105.013 123 70 116.987 123 70 105 123.013 70 
[...]
POINT_DATA 1476
SCALARS scalars float
LOOKUP_TABLE default
1 1 1 1 1 1 1 1 1 
1 1 1 1 1 1 1 1 1 
1 1 1 1 1 1 1 1 1 
1 1 1 1 1 1 1 1 1 
1 1 1 1 1 1 1 1 1 
1 1 1 1 1 1 1 1 1 
1 1 1 1 1 1 1 1 1 
1 1 1 1 1 1 1 1 1 
1 1 1 1 1 1 1 1 1 
1 1 1 1 1 1 1 1 1 
1 1 1 1 1 1 1 1 1 
1 1 1 1 1 1 1 1 1 
1 1 1 1 1 1 1 1 1 
1 1 1 1 1 1 1 1 1 
1 1 1 1 1 1 1 1 1 
1 1 1 1 1 1 1 1 1 
1 1 1 1 1 1 1 1 1 
1 1 1 1 1 1 1 1 1 
1 1 1 1 1 1 1 1 1 
1 1 1 1 1 1 1 1 1 
1 1 1 1 1 1 1 1 1 
1 1 1 1 1 1 1 1 1 
1 1 1 1 1 1 1 1 1 
1 1 1 1 1 1 1 1 1 
1 1 1 1 1 1 1 1 1 
1 1 1 1 1 1 1 1 1 
1 1 1 1 1 1 1 1 1 
1 1 1 1 1 1 1 1 1 
1 1 1 1 1 1 1 1 1 
1 1 1 1 1 1 1 1 1 
1 1 1 1 1 1 1 1 1 
1 1 1 1 1 1 1 1 1 
1 1 1 1 1 1 1 1 1 
1 1 1 1 1 1 1 1 1 
1 1 1 1 1 1 1 1 1 
1 1 1 1 1 1 1 1 1 
1 1 1 1 1 1 1 1 1 
1 1 1 1 1 1 1 1 1 
1 1 1 1 1 1 1 1 1 
1 1 1 1 1 1 1 1 1 
1 1 1 1 1 1 1 1 1 
1 1 1 1 1 1 1 1 1 
1 1 1 1 1 1 1 1 1 
1 1 1 1 1 1 1 1 1 
1 1 1 1 1 1 1 1 1 
1 1 1 1 1 1 1 1 1 
1 1 1 1 1 1 1 1 1 
1 1 1 1 1 1 1 1 1 
1 1 1 1 1 1 1 1 1 
1 1 1 1 1 1 1 1 1 
1 1 1 1 1 1 1 1 1 
1 1 1 1 1 1 1 1 1 
1 1 1 1 1 1 1 1 1 
1 1 1 1 1 1 1 1 1 
1 1 1 1 1 1 1 1 1 
1 1 1 1 1 1 1 1 1 
1 1 1 1 1 1 1 1 1 
1 1 1 1 1 1 1 1 1 
1 1 1 1 1 1 1 1 1 
1 1 1 1 1 1 1 1 1 
1 1 1 1 1 1 1 1 1 
1 1 1 1 1 1 1 1 1 
1 1 1 1 1 1 1 1 1 
1 1 1 1 1 1 1 1 1 
1 1 1 1 1 1 1 1 1 
1 1 1 1 1 1 1 1 1 
1 1 1 1 1 1 1 1 1 
1 1 1 1 1 1 1 1 1 
1 1 1 1 1 1 1 1 1 
1 1 1 1 1 1 1 1 1 
1 1 1 1 1 1 1 1 1 
1 1 1 1 1 1 1 1 1 
1 1 1 1 1 1 1 1 1 
1 1 1 1 1 1 1 1 1 
1 1 1 1 1 1 1 1 1 
1 1 1 1 1 1 1 1 1 
1 1 1 1 1 1 1 1 1 
1 1 1 1 1 1 1 1 1 
1 1 1 1 1 1 1 1 1 
1 1 1 1 1 1 1 1 1 
1 1 1 1 1 1 1 1 1 
1 1 1 1 1 1 1 1 1 
1 1 1 1 1 1 1 1 1 
1 1 1 1 1 1 1 1 1 
1 1 1 1 1 1 1 1 1 
1 1 1 1 1 1 1 1 1 
1 1 1 1 1 1 1 1 1 
1 1 1 1 1 1 1 1 1 
1 1 1 1 1 1 1 1 1 
1 1 1 1 1 1 1 1 1 
1 1 1 1 1 1 1 1 1 
1 1 1 1 1 1 1 1 1 
1 1 1 1 1 1 1 1 1 
1 1 1 1 1 1 1 1 1 
1 1 1 1 1 1 1 1 1 
1 1 1 1 1 1 1 1 1 
1 1 1 1 1 1 1 1 1 
1 1 1 1 1 1 1 1 1 
1 1 1 1 1 1 1 1 1 
1 1 1 1 1 1 1 1 1 
1 1 1 1 1 1 1 1 1 
1 1 1 1 1 1 1 1 1 
1 1 1 1 1 1 1 1 1 
1 1 1 1 1 1 1 1 1 
1 1 1 1 1 1 1 1 1 
1 1 1 1 1 1 1 1 1 
1 1 1 1 1 1 1 1 1 
1 1 1 1 1 1 1 1 1 
1 1 1 1 1 1 1 1 1 
1 1 1 1 1 1 1 1 1 
1 1 1 1 1 1 1 1 1 
1 1 1 1 1 1 1 1 1 
1 1 1 1 1 1 1 1 1 
1 1 1 1 1 1 1 1 1 
1 1 1 1 1 1 1 1 1 
1 1 1 1 1 1 1 1 1 
1 1 1 1 1 1 1 1 1 
1 1 1 1 1 1 1 1 1 
1 1 1 1 1 1 1 1 1 
1 1 1 1 1 1 1 1 1 
1 1 1 1 1 1 1 1 1 
1 1 1 1 1 1 1 1 1 
1 1 1 1 1 1 1 1 1 
1 1 1 1 1 1 1 1 1 
1 1 1 1 1 1 1 1 1 
1 1 1 1 1 1 1 1 1 
1 1 1 1 1 1 1 1 1 
1 1 1 1 1 1 1 1 1 
1 1 1 1 1 1 1 1 1 
1 1 1 1 1 1 1 1 1 
1 1 1 1 1 1 1 1 1 
1 1 1 1 1 1 1 1 1 
1 1 1 1 1 1 1 1 1 
1 1 1 1 1 1 1 1 1 
1 1 1 1 1 1 1 1 1 
1 1 1 1 1 1 1 1 1 
1 1 1 1 1 1 1 1 1 
1 1 1 1 1 1 1 1 1 
1 1 1 1 1 1 1 1 1 
1 1 1 1 1 1 1 1 1 
1 1 1 1 1 1 1 1 1 
1 1 1 1 1 1 1 1 1 
1 1 1 1 1 1 1 1 1 
1 1 1 1 1 1 1 1 1 
1 1 1 1 1 1 1 1 1 
1 1 1 1 1 1 1 1 1 
1 1 1 1 1 1 1 1 1 
1 1 1 1 1 1 1 1 1 
1 1 1 1 1 1 1 1 1 
1 1 1 1 1 1 1 1 1 
1 1 1 1 1 1 1 1 1 
1 1 1 1 1 1 1 1 1 
1 1 1 1 1 1 1 1 1 
1 1 1 1 1 1 1 1 1 
1 1 1 1 1 1 1 1 1 
1 1 1 1 1 1 1 1 1 
1 1 1 1 1 1 1 1 1 
1 1 1 1 1 1 1 1 1 
1 1 1 1 1 1 1 1 1 
1 1 1 1 1 1 1 1 1 
1 1 1 1 1 1 1 1 1 
1 1 1 1 1 1 1 1 1 
1 1 1 1 1 1 1 1 1 
1 1 1 1 1 1 1 1 1 

NORMALS normals float
-0.0131556 -0.0131556 -0.999827 -0.00930363 -0.707076 -0.707076 -0.57735 -0.57735 -0.57735 
0 -0.0131568 -0.999913 0 -0.707107 -0.707107 0 -0.0131568 -0.999913 
0 -0.707107 -0.707107 0.0131556 -0.0131556 -0.999827 0.0131556 -0.999827 -0.0131556 
0.999827 -0.0131556 -0.0131556 -0.0131556 -0.0131556 -0.999827 -0.57735 -0.57735 -0.57735 
-0.57735 -0.57735 -0.57735 0 0 -1 0 0 -1 
0 0 -1 0.0131568 0 -0.999913 0.999913 0 -0.0131568 
-0.0131556 -0.0131556 -0.999827 -0.57735 -0.57735 -0.57735 -0.57735 -0.57735 -0.57735 
0 0 -1 0 0 -1 0 0 -1 
0 0 -1 0.0131556 0.0131556 -0.999827 0.999827 0.0131556 -0.0131556 
-0.0131556 -0.0131556 -0.999827 -0.57735 -0.57735 -0.57735 -0.57735 -0.57735 -0.57735 
0 0 -1 0 0 -1 0 0 -1 
0 0 -1 0.0131556 0.0131556 -0.999827 0.707076 0.707076 -0.00930363 
0.707076 0.707076 -0.00930363 -0.0131556 -0.0131556 -0.999827 -0.57735 -0.57735 -0.57735 
-0.57735 -0.57735 -0.57735 0 0 -1 0 0 -1 
0 0 -1 0 0 -1 0.0131568 0 -0.999913 
0.711743 0.702378 -0.00936504 0.707076 0.707076 -0.00930363 -0.0131556 -0.0131556 -0.999827 
-0.57735 -0.57735 -0.57735 -0.57735 -0.57735 -0.57735 0 0 -1 
0 0 -1 0 0 -1 0 0 -1 
0 0 -1 0.0131568 0 -0.999913 0.999913 0 -0.0131568 
-0.0131556 -0.0131556 -0.999827 -0.57735 -0.57735 -0.57735 -0.57735 -0.57735 -0.57735 
0 0 -1 0 0 -1 0 0 -1 
0 0 -1 0 0 -1 0 0 -1 
0.0131568 0 -0.999913 0.999913 0 -0.0131568 -0.0131556 -0.0131556 -0.999827 
-0.57735 -0.57735 -0.57735 -0.57735 -0.57735 -0.57735 0 0 -1 
0 0 -1 0 0 -1 0 0 -1 
0 0 -1 0 0 -1 0 0 -1 
0.0131568 0 -0.999913 0.999913 0 -0.0131568 -0.0131556 -0.0131556 -0.999827 
-0.57735 -0.57735 -0.57735 -0.57735 -0.57735 -0.57735 0 0 -1 
0 0 -1 0 0 -1 0 0 -1 
0 0 -1 0 0 -1 0 0 -1 
0 0 -1 0.0131556 0.0131556 -0.999827 0.999827 0.0131556 -0.0131556 
-0.0131556 -0.0131556 -0.999827 -0.57735 -0.57735 -0.57735 -0.57735 -0.57735 -0.57735 
0 0 -1 0 0 -1 0 0 -1 
0 0 -1 0 0 -1 0 0 -1 
0 0 -1 0 0 -1 0.0131556 0.0131556 -0.999827 
0.707076 0.707076 -0.00930363 0.707076 0.707076 -0.00930363 -0.0131556 -0.0131556 -0.999827 
-0.0131556 -0.999827 -0.0131556 -0.707076 -0.707076 -0.00930363 0 -0.0131568 -0.999913 
0 -0.707107 -0.707107 0 -0.0131568 -0.999913 -0.572252 -0.579882 -0.579882 
0 0 -1 0 0 -1 0 0 -1 
0 0 -1 0 0 -1 0 0 -1 
0 0 -1 0 0 -1 0.0131568 0 -0.999913 
0.711743 0.702378 -0.00936504 0.707076 0.707076 -0.00930363 -0.0131556 -0.0131556 -0.999827 
-0.707076 -0.707076 -0.00930363 -0.707076 -0.707076 -0.00930363 0 0 -1 
0 0 -1 0 0 -1 0 0 -1 
0 0 -1 0 0 -1 0 0 -1 
0 0 -1 0 0 -1 0 0 -1 
0 0 -1 0.0131568 0 -0.999913 0.999913 0 -0.0131568 
-0.0131556 -0.0131556 -0.999827 -0.707076 -0.707076 -0.00930363 -0.707076 -0.707076 -0.00930363 
0 0 -1 0 0 -1 0 0 -1 
0 0 -1 0 0 -1 0 0 -1 
0 0 -1 0 0 -1 0 0 -1 
0 0 -1 0 0 -1 0 0 -1 
0.0131556 0.0131556 -0.999827 0.999827 0.0131556 -0.0131556 -0.0131556 -0.0131556 -0.999827 
-0.707076 -0.707076 -0.00930363 -0.707076 -0.707076 -0.00930363 0 0 -1 
0 0 -1 0 0 -1 0 0 -1 
0 0 -1 0 0 -1 0 0 -1 
0 0 -1 0 0 -1 0 0 -1 
0 0 -1 0 0 -1 0.0131556 0.0131556 -0.999827 
0.707076 0.707076 -0.00930363 0.707076 0.707076 -0.00930363 -0.0131556 -0.0131556 -0.999827 
-0.707076 -0.707076 -0.00930363 -0.999827 -0.0131556 -0.0131556 0 0 -1 
0 0 -1 0 0 -1 0 0 -1 
0 0 -1 0 0 -1 0 0 -1 
0 0 -1 0 0 -1 0 0 -1 
0 0 -1 0 0 -1 0.0131556 0.0131556 -0.999827 
0.707076 0.707076 -0.00930363 0.707076 0.707076 -0.00930363 -0.0131568 0 -0.999913 
-0.999913 0 -0.0131568 0 0 -1 0 0 -1 
0 0 -1 0 0 -1 0 0 -1 
0 0 -1 0 0 -1 0 0 -1 
0 0 -1 0 0.0131568 -0.999913 0 0.0131568 -0.999913 
0.0131556 0.0131556 -0.999827 0.707076 0.707076 -0.00930363 0.707076 0.707076 -0.00930363 
-0.0131568 0 -0.999913 -0.999913 0 -0.0131568 0 0 -1 
0 0 -1 0 0 -1 0 0 -1 
0 0 -1 0 0 -1 0 0 -1 
0 0 -1 0.0131556 0.0131556 -0.999827 0.707076 0.707076 -0.00930363 
0.702378 0.711743 -0.00936504 0 0.999913 -0.0131568 0.0131556 0.999827 -0.0131556 
-0.0131556 0.0131556 -0.999827 -0.999827 0.0131556 -0.0131556 0 0.0131568 -0.999913 
0 0.0131568 -0.999913 0 0.0131568 -0.999913 0 0.0131568 -0.999913 
0 0.0131568 -0.999913 0 0.0131568 -0.999913 0 0.0131568 -0.999913 
0.0131556 0.0131556 -0.999827 0.707076 0.707076 -0.00930363 0.707076 0.707076 -0.00930363 
-0.0131556 0.999827 -0.0131556 0 0.999913 -0.0131568 0 0.999913 -0.0131568 
0 0.999913 -0.0131568 0 0.999913 -0.0131568 0 0.707107 -0.707107 
0 0.999913 -0.0131568 0 0.999913 -0.0131568 0.0131556 0.999827 -0.0131556 
-0.00930363 -0.707076 -0.707076 -0.00930363 -0.707076 -0.707076 -0.57735 -0.57735 -0.57735 
0 -0.707107 -0.707107 0 -0.707107 -0.707107 0.00936504 -0.711743 -0.702378 
0.0131568 -0.999913 0 0.707107 -0.707107 0 -0.57735 -0.57735 -0.57735 
-0.57735 -0.57735 -0.57735 -0.57735 -0.57735 -0.57735 0.707107 -0.707107 0 
0.999913 -0.0131568 0 -0.57735 -0.57735 -0.57735 -0.57735 -0.57735 -0.57735 
-0.57735 -0.57735 -0.57735 1 0 0 -0.57735 -0.57735 -0.57735 
-0.57735 -0.57735 -0.57735 -0.57735 -0.57735 -0.57735 0.999913 0.0131568 0 
-0.57735 -0.57735 -0.57735 -0.57735 -0.57735 -0.57735 -0.57735 -0.57735 -0.57735 
0.707107 0.707107 0 0.707107 0.707107 0 -0.57735 -0.57735 -0.57735 
-0.57735 -0.57735 -0.57735 -0.57735 -0.57735 -0.57735 0.711774 0.702409 0 
0.707107 0.707107 0 -0.57735 -0.57735 -0.57735 -0.57735 -0.57735 -0.57735 
-0.57735 -0.57735 -0.57735 1 0 0 -0.57735 -0.57735 -0.57735 
-0.57735 -0.57735 -0.57735 -0.57735 -0.57735 -0.57735 1 0 0 
-0.57735 -0.57735 -0.57735 -0.57735 -0.57735 -0.57735 -0.57735 -0.57735 -0.57735 
1 0 0 -0.57735 -0.57735 -0.57735 -0.57735 -0.57735 -0.57735 
-0.57735 -0.57735 -0.57735 0.999913 0.0131568 0 -0.00930363 -0.707076 -0.707076 
-0.0131556 -0.999827 -0.0131556 -0.707076 -0.707076 -0.00930363 -0.572252 -0.579882 -0.579882 
-0.572252 -0.579882 -0.579882 0.707107 0.707107 0 0.707107 0.707107 0 
-0.707107 -0.707107 0 -0.707107 -0.707107 0 0.711774 0.702409 0 
0.707107 0.707107 0 -0.707107 -0.707107 0 -0.707107 -0.707107 0 
1 0 0 -0.707107 -0.707107 0 -0.707107 -0.707107 0 
0.999913 0.0131568 0 -0.707107 -0.707107 0 -0.707107 -0.707107 0 
0.707107 0.707107 0 0.707107 0.707107 0 -0.707107 -0.707107 0 
-0.999913 -0.0131568 0 0.707107 0.707107 0 0.707107 0.707107 0 
-1 0 0 0.707107 0.707107 0 0.707107 0.707107 0 
-1 0 0 0.707107 0.707107 0 0.702409 0.711774 0 
0 1 0 0.0131568 0.999913 0 -0.999913 0.0131568 0 
0.707107 0.707107 0 0.707107 0.707107 0 -0.00936504 0.711743 -0.702378 
0 0.711774 -0.702409 0 0.711774 -0.702409 0 0.0133321 -0.999911 
-0.707075 0.00942767 -0.707075 0 0.702409 -0.711774 -0.702409 0 -0.711774 
0.574784 0.574784 -0.582448 0.574784 0.582448 -0.574784 0 0.711774 -0.702409 
0.0131568 0.999913 0 -0.0131556 -0.0131556 -0.999827 -0.0131556 -0.0131556 -0.999827 
-0.707076 -0.00930363 -0.707076 0 0 -1 -0.702409 0 -0.711774 
0.0131556 0.0131556 -0.999827 0.707076 0.00930363 -0.707076 0 0 -1 
-0.702409 0 -0.711774 0.574784 0.574784 -0.582448 0.574784 0.574784 -0.582448 
0.00930363 0.707076 -0.707076 0 0.0131568 -0.999913 -0.702378 0.00936504 -0.711743 
0.702378 0.00936504 -0.711743 0 0.999913 -0.0131568 -0.00930363 -0.707076 -0.707076 
-0.0131556 -0.999827 -0.0131556 -0.707076 -0.707076 -0.00930363 0.00930363 -0.707076 -0.707076 
0.0131556 -0.999827 -0.0131556 0.999827 -0.0131556 -0.0131556 -0.57735 -0.57735 -0.57735 
-0.707076 -0.707076 -0.00930363 -0.707076 -0.707076 -0.00930363 0.582448 -0.574784 0.574784 
0.579882 -0.579882 0.572252 -0.57735 -0.57735 -0.57735 -0.707076 -0.707076 -0.00930363 
-0.707076 -0.707076 -0.00930363 0.574784 -0.582448 0.574784 0.0131556 -0.999827 0.0131556 
0.999827 -0.0131556 0.0131556 -0.57735 -0.57735 -0.57735 -0.707076 -0.707076 -0.00930363 
-0.707076 -0.707076 -0.00930363 0.999913 0 0.0131568 -0.57735 -0.57735 -0.57735 
-0.707076 -0.707076 -0.00930363 -0.707076 -0.707076 -0.00930363 0.999827 0.0131556 0.0131556 
-0.57735 -0.57735 -0.57735 -0.707076 -0.707076 -0.00930363 -0.707076 -0.707076 -0.00930363 
0.707076 0.707076 0.00930363 0.707076 0.707076 0.00930363 -0.57735 -0.57735 -0.57735 
-0.707076 -0.707076 -0.00930363 -0.707076 -0.707076 -0.00930363 0.711774 0.702409 0 
0.707076 0.707076 0.00930363 -0.57735 -0.57735 -0.57735 -0.707076 -0.707076 -0.00930363 
-0.707076 -0.707076 -0.00930363 1 0 0 -0.57735 -0.57735 -0.57735 
-0.707076 -0.707076 -0.00930363 -0.707076 -0.707076 -0.00930363 1 0 0 
-0.57735 -0.57735 -0.57735 -0.707076 -0.707076 -0.00930363 -0.707076 -0.707076 -0.00930363 
0.999913 0 0.0131568 -0.57735 -0.57735 -0.57735 -0.707076 -0.707076 -0.00930363 
-0.707076 -0.707076 -0.00930363 0.999827 0.0131556 0.0131556 -0.707107 -0.707107 0 
-0.707107 -0.707107 0 0.707076 0.707076 0.00930363 0.707076 0.707076 0.00930363 
-0.707107 -0.707107 0 -0.707107 -0.707107 0 0.711774 0.702409 0 
0.707076 0.707076 0.00930363 -0.707107 -0.707107 0 -0.707107 -0.707107 0 
0.999913 0 0.0131568 -0.707107 -0.707107 0 -0.707107 -0.707107 0 
0.999827 0.0131556 0.0131556 -0.707107 -0.707107 0 -0.707107 -0.707107 0 
0.707076 0.707076 0.00930363 0.707076 0.707076 0.00930363 -0.707107 -0.707107 0 
-0.999913 -0.0131568 0 0.707107 0.707107 0 0.707076 0.707076 0.00930363 
-1 0 0 0.707107 0.707107 0 0.707107 0.707107 0 
-1 0 0 0.707107 0.707107 0 0.702409 0.711774 0 
0 1 0 0.0131568 0.999913 0 -1 0 0 
0.579882 0.579882 -0.572252 0.579882 0.579882 -0.572252 -0.00936504 0.702378 -0.711743 
-0.999913 0 -0.0131568 0 0.702409 -0.711774 0 0.702409 -0.711774 
0 0 -1 -0.702409 0 -0.711774 0.574784 0.574784 -0.582448 
0.00936504 0.702378 -0.711743 0.711743 0.702378 -0.00936504 0.707107 0.707107 0 
-0.0131556 0.0131556 -0.999827 -0.999827 0.0131556 -0.0131556 0 0.0131568 -0.999913 
-0.702409 0 -0.711774 0.702409 0 -0.711774 0.0131568 0 -0.999913 
0.999913 0 -0.0131568 -0.0131556 0.999827 -0.0131556 -0.702378 0.711743 -0.00936504 
-0.711743 0.702378 -0.00936504 -0.707107 0 -0.707107 0.574784 0.574784 -0.582448 
0 0.702409 -0.711774 0 0 -1 0.0131556 0.0131556 -0.999827 
0.999827 0.0131556 -0.0131556 -0.707076 0.00930363 -0.707076 -0.999827 0.0131556 -0.0131556 
0.702409 0 -0.711774 0 0 -1 0.0131556 0.0131556 -0.999827 
0.707076 0.707076 -0.00930363 0.707076 0.707076 -0.00930363 -0.0131556 0.999827 -0.0131556 
-0.702409 0.711774 0 -0.0131568 0 -0.999913 -0.711743 0.702378 -0.00936504 
0.0131556 0.0131556 -0.999827 0.707076 0.707076 -0.00930363 0.707076 0.707076 -0.00930363 
0 0.0131568 -0.999913 -0.999822 0.013331 -0.013331 0.702378 0.711743 -0.00936504 
0.707076 0.707076 -0.00930363 0 0.999913 -0.0131568 -0.0131568 -0.999913 0 
-0.707107 -0.707107 0 0.0131568 -0.999913 0 0.999913 -0.0131568 0 
-0.707107 -0.707107 0 -0.707107 -0.707107 0 0.711774 -0.702409 0 
-0.707107 -0.707107 0 -0.707107 -0.707107 0 0.707076 -0.707076 0.00930363 
0.707076 -0.00930363 0.707076 0.707076 -0.00930363 0.707076 -0.707107 -0.707107 0 
-0.707107 -0.707107 0 0.707107 0 0.707107 0.707107 0 0.707107 
-0.707107 -0.707107 0 -0.707107 -0.707107 0 0.707076 0.00930363 0.707076 
0.707076 0.00930363 0.707076 -0.707107 -0.707107 0 -0.707107 -0.707107 0 
0.57735 0.57735 0.57735 0.582448 0.574784 0.574784 0.57735 0.57735 0.57735 
-0.707107 -0.707107 0 -0.707107 -0.707107 0 1 0 0 
-0.707107 -0.707107 0 -0.707107 -0.707107 0 1 0 0 
-0.707107 -0.707107 0 -0.707107 -0.707107 0 0.999913 0.0131568 0 
-0.707107 -0.707107 0 -0.707107 -0.707107 0 0.579882 0.572252 0.579882 
0.582448 0.574784 0.574784 0.579882 0.579882 0.572252 -0.707107 -0.707107 0 
-0.707107 -0.707107 0 0.707076 0.00930363 0.707076 0.707076 0.00930363 0.707076 
-0.707107 -0.707107 0 -0.707107 -0.707107 0 0.57735 0.57735 0.57735 
0.582448 0.574784 0.574784 0.57735 0.57735 0.57735 -0.707107 -0.707107 0 
-0.707107 -0.707107 0 0.999913 0.0131568 0 -0.707107 -0.707107 0 
-0.707107 -0.707107 0 0.579882 0.572252 0.579882 0.582448 0.574784 0.574784 
0.579882 0.579882 0.572252 -0.707107 -0.707107 0 -0.707107 -0.707107 0 
0.707076 0.00930363 0.707076 0.707076 0.00930363 0.707076 -0.707107 -0.707107 0 
-0.707107 -0.707107 0 0.57735 0.57735 0.57735 0.582448 0.574784 0.574784 
0.57735 0.57735 0.57735 -0.707107 -0.707107 0 -0.999913 -0.0131568 0 
0.999913 0.0131568 0 -1 0 0 0.707107 0.707107 0 
0.707107 0.707107 0 -1 0 0 0.582448 0.574784 -0.574784 
0.574784 0.582448 -0.574784 0 0.711774 -0.702409 0.0131568 0.999913 0 
-1 0 0 0.57735 0.57735 -0.57735 0.707076 0.00930363 -0.707076 
-1 0 0 0.582448 0.574784 -0.574784 0.574784 0.582448 -0.574784 
0.00930363 0.707076 -0.707076 -0.999913 0.0131568 0 0.711774 0 -0.702409 
-0.0131568 0.999913 0 -0.702409 0.711774 0 -0.711774 0.702409 0 
0.999913 0.0131568 0 -0.999913 0.0131568 0 0.707107 0.707107 0 
0.707107 0.707107 0 -0.0131568 0.999913 0 -0.702409 0.711774 0 
-0.711774 0.702409 0 0.707107 0.707107 0 0.707107 0.707107 0 
-0.999911 0.0133321 0 0.702409 0.711774 0 0.707107 0.707107 0 
0 1 0 -0.0131568 -0.999913 0 -0.707107 -0.707107 0 
0.0131556 -0.999827 0.0131556 0.999827 -0.0131556 0.0131556 -0.707076 -0.707076 0.00930363 
-0.707076 -0.707076 0.00930363 0.999913 0 0.0131568 -0.707107 -0.707107 0 
-0.707107 -0.707107 0 0.707076 -0.00930363 0.707076 0.707107 0 0.707107 
-0.707107 -0.707107 0 -0.707107 -0.707107 0 0.707107 0 0.707107 
0.707107 0 0.707107 -0.707107 -0.707107 0 -0.707107 -0.707107 0 
0.707076 0.00930363 0.707076 0.711774 0 0.702409 -0.707107 -0.707107 0 
-0.707107 -0.707107 0 1 0 0 -0.707107 -0.707107 0 
-0.707107 -0.707107 0 1 0 0 -0.707107 -0.707107 0 
-0.707107 -0.707107 0 1 0 0 -0.707107 -0.707107 0 
-0.707107 -0.707107 0 0.999913 0.0131568 0 -0.707107 -0.707107 0 
-0.707107 -0.707107 0 0.707107 0.707107 0 0.707107 0.707107 0 
-0.707107 -0.707107 0 -0.707107 -0.707107 0 0.57735 0.57735 0.57735 
0.582448 0.574784 0.574784 0.579882 0.579882 0.572252 -0.707107 -0.707107 0 
-0.707107 -0.707107 0 1 0 0 -0.707107 -0.707107 0 
-0.707107 -0.707107 0 0.999913 0.0131568 0 -0.707107 -0.707107 0 
-0.707107 -0.707107 0 0.707107 0.707107 0 0.707107 0.707107 0 
-0.707107 -0.707107 0 -0.707107 -0.707107 0 0.57735 0.57735 0.57735 
0.582448 0.574784 0.574784 0.579882 0.579882 0.572252 -0.707076 -0.707076 0.00930363 
-0.707076 -0.707076 0.00930363 1 0 0 -0.707107 -0.707107 0 
-0.999913 -0.0131568 0 0.999913 0.0131568 0 -1 0 0 
0.707107 0.707107 0 0.707107 0.707107 0 -1 0 0 
0.574784 0.574784 -0.582448 0.00930363 0.707076 -0.707076 0.707076 0.707076 -0.00930363 
0.707107 0.707107 0 -1 0 0 0.707076 0.00930363 -0.707076 
0.707076 0.707076 -0.00930363 0.707076 0.707076 -0.00930363 -1 0 0 
0.574784 0.574784 -0.582448 0.00930363 0.707076 -0.707076 0.707076 0.707076 -0.00930363 
0.707076 0.707076 -0.00930363 -0.999827 0.0131556 0.0131556 0.707076 0.00930363 -0.707076 
0.57735 0.57735 -0.57735 0.57735 0.57735 -0.57735 -0.0131556 0.999827 0.0131556 
-0.702409 0.711774 0 -0.711774 0.702409 0 0.707107 0.707107 0 
0.707076 0.707076 -0.00930363 -0.999913 0.0131568 0 0.707107 0.707107 0 
0.707107 0.707107 0 -0.0131568 0.999913 0 -0.702409 0.711774 0 
-0.711774 0.702409 0 0.707076 0.707076 0.00930363 0.707107 0.707107 0 
-0.999822 0.013331 0.013331 0.702378 0.711743 0.00936504 0.707076 0.707076 0.00930363 
0 0.999913 0.0131568 0 -0.999913 0.0131568 -0.999822 -0.013331 0.013331 
0.707076 -0.00930363 0.707076 0.702378 -0.00936504 0.711743 -0.57735 -0.57735 0.57735 
-0.574784 -0.574784 0.582448 0.707107 0 0.707107 0.702409 0 0.711774 
-0.0131556 -0.999827 0.0131556 -0.707076 -0.707076 0.00930363 -0.572252 -0.579882 0.579882 
0.707107 0 0.707107 0.707107 0 0.707107 -0.707076 -0.707076 0.00930363 
-0.707076 -0.707076 0.00930363 0.579882 -0.572252 0.579882 0.579882 -0.572252 0.579882 
-0.707107 -0.707107 0 -0.707107 -0.707107 0 0.579882 -0.579882 0.572252 
0.999913 -0.0131568 0 -0.707107 -0.707107 0 -0.707107 -0.707107 0 
1 0 0 -0.707107 -0.707107 0 -0.707107 -0.707107 0 
1 0 0 -0.707107 -0.707107 0 -0.707107 -0.707107 0 
1 0 0 -0.707107 -0.707107 0 -0.707107 -0.707107 0 
0.999913 0.0131568 0 -0.707107 -0.707107 0 -0.707107 -0.707107 0 
0.707107 0.707107 0 0.707107 0.707107 0 -0.707107 -0.707107 0 
-0.707107 -0.707107 0 0.711774 0.702409 0 0.707107 0.707107 0 
-0.707107 -0.707107 0 -0.707107 -0.707107 0 1 0 0 
-0.707107 -0.707107 0 -0.707107 -0.707107 0 0.999913 0.0131568 0 
-0.707076 -0.707076 0.00930363 -0.707076 -0.707076 0.00930363 0.707107 0.707107 0 
0.707107 0.707107 0 -0.707076 -0.707076 0.00930363 -0.999827 -0.0131556 0.0131556 
0.711774 0.702409 0 0.707107 0.707107 0 -0.57735 -0.57735 0.57735 
-0.579882 -0.572252 0.579882 1 0 0 -0.0131556 -0.999827 0.0131556 
-0.999827 -0.0131556 0.0131556 -0.572252 -0.579882 0.579882 0.999913 0.0131568 0 
-0.999913 0 0.0131568 0.707107 0.707107 0 0.707107 0.707107 0 
-0.999913 0 0.0131568 0.707107 0.707107 0 0.707107 0.707107 0 
-0.999913 0 0.0131568 0.579882 0.579882 -0.572252 0.579882 0.579882 -0.572252 
-0.999827 0.0131556 0.0131556 0.582448 0.574784 -0.574784 0.579882 0.579882 -0.572252 
-0.57735 0.57735 0.57735 -0.57735 0.57735 0.57735 -0.57735 0.57735 0.57735 
0.57735 0.57735 -0.57735 0.707076 0.00930363 -0.707076 -0.707076 0.707076 0.00930363 