# vtk DataFile Version 3.0
vtk output
ASCII
DATASET POLYDATA
POINTS 5802 float
117 119 34.025 117 118.025 35 116.025 119 35 
117.975 119 35 116 120 34.025 116 119.025 35 
115.025 120 35 117 119.975 35 116.975 120 35 
115 121 34.025 115 120.025 35 114.025 121 35 
116 121 34.025 116.975 121 35 114 122 34.025 
114 121.025 35 113.025 122 35 115 121.975 35 
114.975 122 35 116 121.975 35 113 123 34.025 
113 122.025 35 112.025 123 35 114 123 34.025 
114.975 123 35 112 124 34.025 112 123.025 35 
111.025 124 35 113 123.975 35 112.975 124 35 
114 123.975 35 112 125 34.025 111.025 125 35 
112.975 125 35 112 126 34.025 111.025 126 35 
112.975 126 35 112 127 34.025 111.025 127 35 
113 126.025 35 113 127 34.025 114 127 34.025 
114 126.025 35 115 127 34.025 115 126.025 35 
116 127 34.025 116 126.025 35 116.975 127 35 
112 128 34.025 111.025 128 35 112.975 128 35 
113 127.975 35 114 127.975 35 115 127.975 35 
115.025 128 35 116 128 34.025 116.975 128 35 
111 129 34.025 111 128.025 35 110.025 129 35 
112 128.975 35 111.975 129 35 116 128.975 35 
111 129.975 35 117 118 35.025 117 117.025 36 
116.025 118 36 118 118 35.025 118 117.025 36 
118.975 118 36 116 119 35.025 116 118.025 36 
115.025 119 36 118 119 35.025 118.975 119 36 
115 120 35.025 115 119.025 36 114.025 120 36 
117 120 35.025 118 120 35.025 118.975 120 36 
114 121 35.025 114 120.025 36 113.025 121 36 
117 121 35.025 118 121 35.025 118.975 121 36 
113 122 35.025 113 121.025 36 112.025 122 36 
115 122 35.025 116 122 35.025 117 122 35.025 
118 122 35.025 118.975 122 36 112 123 35.025 
112 122.025 36 111.025 123 36 115 123 35.025 
116 123 35.025 117 123 35.025 118 123 35.025 
118.975 123 36 111 124 35.025 111 123.025 36 
110.025 124 36 113 124 35.025 114 124 35.025 
115 124 35.025 116 124 35.025 117 124 35.025 
118 124 35.025 118.975 124 36 111 125 35.025 
110.025 125 36 113 125 35.025 114 125 35.025 
115 125 35.025 116 125 35.025 117 125 35.025 
118 125 35.025 118.975 125 36 111 126 35.025 
110.025 126 36 113 126 35.025 114 126 35.025 
115 126 35.025 116 126 35.025 117 126 35.025 
118 126 35.025 118.975 126 36 111 127 35.025 
110.025 127 36 117 127 35.025 118 127 35.025 
118.975 127 36 111 128 35.025 110.025 128 36 
113 128 35.025 114 128 35.025 115 128 35.025 
117 128 35.025 118 128 35.025 119 127.025 36 
119 128 35.025 120 128 35.025 120 127.025 36 
120.975 128 36 110.025 129 36 112 129 35.025 
113 129 35.025 114 129 35.025 115 129 35.025 
116 129 35.025 117 129 35.025 118 129 35.025 
119 129 35.025 119.975 129 36 120 128.975 36 
111 130 35.025 110.025 130 36 112 130 35.025 
112.975 130 36 113 129.975 36 114 129.975 36 
115 129.975 36 116 129.975 36 117 129.975 36 
118 129.975 36 119 129.975 36 111 131 35.025 
110.025 131 36 112 131 35.025 112.975 131 36 
111 132 35.025 110.025 132 36 112 132 35.025 
112.975 132 36 111 133 35.025 110.025 133 36 
111.975 133 36 112 132.975 36 111 133.975 36 
116 118 36.025 116 117.025 37 115.025 118 37 
117 117.025 37 118 117.025 37 118.975 118 37 
114 119 36.025 114 118.025 37 113.025 119 37 
115 119 36.025 115 118.025 37 118.975 119 37 
114 120 36.025 113.025 120 37 118.975 120 37 
112 121 36.025 112 120.025 37 111.025 121 37 
113 121 36.025 113 120.025 37 118.975 121 37 
112 122 36.025 111.025 122 37 118.975 122 37 
111 123 36.025 111 122.025 37 110.025 123 37 
118.975 123 37 110.025 124 37 118.975 124 37 
110.025 125 37 118.975 125 37 110.025 126 37 
118.975 126 37 110.025 127 37 119 126.025 37 
119 127 36.025 119.975 127 37 110.025 128 37 
120 127.025 37 120.975 128 37 110.025 129 37 
120 129 36.025 120.975 129 37 110.025 130 37 
112.975 130 37 113 129.975 37 114 129.975 37 
115 129.975 37 116 129.975 37 117 129.975 37 
118 129.975 37 119 129.975 37 120 129.975 37 
110.025 131 37 112.975 131 37 110.025 132 37 
112.975 132 37 110.025 133 37 112 133 36.025 
112.975 133 37 111 133.975 37 112 133.975 37 
116 117 37.025 116 116.025 38 115.025 117 38 
116.975 117 38 113 118 37.025 113 117.025 38 
112.025 118 38 114 118 37.025 114 117.025 38 
115 118 37.025 115 117.025 38 117 117.025 38 
118 117.025 38 118.975 118 38 112 119 37.025 
112 118.025 38 111.025 119 38 113 119 37.025 
118.975 119 38 111 120 37.025 111 119.025 38 
110.025 120 38 112 120 37.025 113 120 37.025 
118.975 120 38 111 121 37.025 110.025 121 38 
118.975 121 38 111 122 37.025 110.025 122 38 
118.975 122 38 110.025 123 38 118.975 123 38 
110.025 124 38 119 123.025 38 119 124 37.025 
120 124 37.025 120 123.025 38 120.975 124 38 
110.025 125 38 119 125 37.025 120 125 37.025 
120.975 125 38 110.025 126 38 119 126 37.025 
120 126 37.025 120.975 126 38 110.025 127 38 
120 127 37.025 120.975 127 38 110.025 128 38 
120.975 128 38 110.025 129 38 120.975 129 38 
110.025 130 38 113 130 37.025 114 130 37.025 
115 130 37.025 116 130 37.025 117 130 37.025 
118 130 37.025 119 130 37.025 120 130 37.025 
120.975 130 38 110.025 131 38 113 131 37.025 
114 131 37.025 115 131 37.025 116 131 37.025 
117 131 37.025 118 131 37.025 119 131 37.025 
119.975 131 38 120 130.975 38 110.025 132 38 
113 132 37.025 114 132 37.025 115 132 37.025 
116 132 37.025 117 132 37.025 118 132 37.025 
118.975 132 38 119 131.975 38 110.025 133 38 
113 133 37.025 114 133 37.025 115 133 37.025 
116 133 37.025 117 133 37.025 117.975 133 38 
118 132.975 38 111 133.975 38 112 133.975 38 
113 134 37.025 112.025 134 38 114 134 37.025 
115 134 37.025 116 134 37.025 116.975 134 38 
117 133.975 38 113 135 37.025 112.025 135 38 
114 135 37.025 115 135 37.025 115.975 135 38 
116 134.975 38 113 135.975 38 114 135.975 38 
115 135.975 38 116 113 38.025 116 112.025 39 
115.025 113 39 116.975 113 39 116 114 38.025 
115.025 114 39 116.975 114 39 116 115 38.025 
115.025 115 39 116.975 115 39 116 116 38.025 
115.025 116 39 116.975 116 39 112 117 38.025 
112 116.025 39 111.025 117 39 113 117 38.025 
113 116.025 39 114 117 38.025 114 116.025 39 
115 117 38.025 115 116.025 39 117 117 38.025 
117 116.025 39 117.975 117 39 112 118 38.025 
111.025 118 39 118 117.025 39 118.975 118 39 
110 119 38.025 110 118.025 39 109.025 119 39 
111 119 38.025 111 118.025 39 118.975 119 39 
110 120 38.025 109.025 120 39 118.975 120 39 
110 121 38.025 109.025 121 39 118.975 121 39 
110 122 38.025 109.025 122 39 118.975 122 39 
110 123 38.025 109.025 123 39 119 122.025 39 
119 123 38.025 119.975 123 39 110 124 38.025 
109.025 124 39 120 123.025 39 120.975 124 39 
110 125 38.025 109.025 125 39 120.975 125 39 
110 126 38.025 109.025 126 39 120.975 126 39 
110 127 38.025 109.025 127 39 120.975 127 39 
110 128 38.025 109.025 128 39 120.975 128 39 
110 129 38.025 109.025 129 39 120.975 129 39 
110 130 38.025 109.025 130 39 120.975 130 39 
110 131 38.025 109.025 131 39 120 131 38.025 
120.975 131 39 110 132 38.025 109.025 132 39 
118.975 132 39 119 131.975 39 120 132 38.025 
119.025 132 39 120.975 132 39 110 133 38.025 
109.025 133 39 118 133 38.025 118.975 133 39 
120 133 38.025 119.025 133 39 120.975 133 39 
110 134 38.025 109.025 134 39 111 133.975 39 
110.975 134 39 112 134 38.025 111.025 134 39 
116.975 134 39 117 133.975 39 118 133.975 39 
120 134 38.025 119.025 134 39 120.975 134 39 
110 134.975 39 112 135 38.025 111.025 135 39 
116 135 38.025 116.975 135 39 120 134.975 39 
112 135.975 39 113 135.975 39 114 135.975 39 
115 135.975 39 116 135.975 39 113 112 39.025 
113 111.025 40 112.025 112 40 114 112 39.025 
114 111.025 40 115 112 39.025 115 111.025 40 
116 112 39.025 116 111.025 40 116.975 112 40 
112 113 39.025 112 112.025 40 111.025 113 40 
113 113 39.025 114 113 39.025 115 113 39.025 
116.975 113 40 111 114 39.025 111 113.025 40 
110.025 114 40 112 114 39.025 113 114 39.025 
114 114 39.025 115 114 39.025 117 113.025 40 
117 114 39.025 118 114 39.025 118 113.025 40 
118.975 114 40 111 115 39.025 110.025 115 40 
112 115 39.025 113 115 39.025 114 115 39.025 
115 115 39.025 117 115 39.025 118 115 39.025 
118.975 115 40 111 116 39.025 110.025 116 40 
112 116 39.025 113 116 39.025 114 116 39.025 
115 116 39.025 117 116 39.025 118 116 39.025 
118.975 116 40 110 117 39.025 110 116.025 40 
109.025 117 40 111 117 39.025 118 117 39.025 
118.975 117 40 109 118 39.025 109 117.025 40 
108.025 118 40 110 118 39.025 111 118 39.025 
119 118 39.025 119 117.025 40 120 118 39.025 
120 117.025 40 120.975 118 40 109 119 39.025 
108.025 119 40 119 119 39.025 120 119 39.025 
120.975 119 40 109 120 39.025 108.025 120 40 
119 120 39.025 120 120 39.025 120.975 120 40 
109 121 39.025 108.025 121 40 119 121 39.025 
120 121 39.025 120.975 121 40 109 122 39.025 
108.025 122 40 119 122 39.025 120 122 39.025 
120.975 122 40 109 123 39.025 108.025 123 40 
120 123 39.025 120.975 123 40 109 124 39.025 
108.025 124 40 121 124 39.025 121 123.025 40 
122 124 39.025 122 123.025 40 122.975 124 40 
109 125 39.025 108.025 125 40 121 125 39.025 
121.975 125 40 122 124.975 40 109 126 39.025 
108.025 126 40 120.975 126 40 121 125.975 40 
109 127 39.025 108.025 127 40 120.975 127 40 
109 128 39.025 108.025 128 40 120.975 128 40 
109 129 39.025 108.025 129 40 120.975 129 40 
109 130 39.025 108.025 130 40 120.975 130 40 
109 131 39.025 108.025 131 40 120.975 131 40 
109 132 39.025 108.025 132 40 119 132 39.025 
121 131.025 40 121 132 39.025 122 132 39.025 
122 131.025 40 122.975 132 40 109 133 39.025 
108.025 133 40 119 133 39.025 121 133 39.025 
122 133 39.025 122.975 133 40 109 134 39.025 
108.025 134 40 111 134 39.025 117 134 39.025 
118 134 39.025 119 134 39.025 121 134 39.025 
122 134 39.025 122.975 134 40 109 135 39.025 
108.025 135 40 110 135 39.025 111 135 39.025 
117 135 39.025 118 135 39.025 119 135 39.025 
120 135 39.025 121 135 39.025 121.975 135 40 
122 134.975 40 109 135.975 40 110 135.975 40 
110.025 136 40 111 136 39.025 112 136 39.025 
113 136 39.025 114 136 39.025 115 136 39.025 
116 136 39.025 117 136 39.025 118 136 39.025 
119 136 39.025 120 136 39.025 120.975 136 40 
121 135.975 40 111 137 39.025 110.025 137 40 
112 137 39.025 113 137 39.025 114 137 39.025 
115 137 39.025 116 137 39.025 117 137 39.025 
118 137 39.025 119 137 39.025 119.975 137 40 
[...]
POINT_DATA 5802
SCALARS scalars float
LOOKUP_TABLE default
1 1 1 1 1 1 1 1 1 
1 1 1 1 1 1 1 1 1 
1 1 1 1 1 1 1 1 1 
1 1 1 1 1 1 1 1 1 
1 1 1 1 1 1 1 1 1 
1 1 1 1 1 1 1 1 1 
1 1 1 1 1 1 1 1 1 
1 1 1 1 1 1 1 1 1 
1 1 1 1 1 1 1 1 1 
1 1 1 1 1 1 1 1 1 
1 1 1 1 1 1 1 1 1 
1 1 1 1 1 1 1 1 1 
1 1 1 1 1 1 1 1 1 
1 1 1 1 1 1 1 1 1 
1 1 1 1 1 1 1 1 1 
1 1 1 1 1 1 1 1 1 
1 1 1 1 1 1 1 1 1 
1 1 1 1 1 1 1 1 1 
1 1 1 1 1 1 1 1 1 
1 1 1 1 1 1 1 1 1 
1 1 1 1 1 1 1 1 1 
1 1 1 1 1 1 1 1 1 
1 1 1 1 1 1 1 1 1 
1 1 1 1 1 1 1 1 1 
1 1 1 1 1 1 1 1 1 
1 1 1 1 1 1 1 1 1 
1 1 1 1 1 1 1 1 1 
1 1 1 1 1 1 1 1 1 
1 1 1 1 1 1 1 1 1 
1 1 1 1 1 1 1 1 1 
1 1 1 1 1 1 1 1 1 
1 1 1 1 1 1 1 1 1 
1 1 1 1 1 1 1 1 1 
1 1 1 1 1 1 1 1 1 
1 1 1 1 1 1 1 1 1 
1 1 1 1 1 1 1 1 1 
1 1 1 1 1 1 1 1 1 
1 1 1 1 1 1 1 1 1 
1 1 1 1 1 1 1 1 1 
1 1 1 1 1 1 1 1 1 
1 1 1 1 1 1 1 1 1 
1 1 1 1 1 1 1 1 1 
1 1 1 1 1 1 1 1 1 
1 1 1 1 1 1 1 1 1 
1 1 1 1 1 1 1 1 1 
1 1 1 1 1 1 1 1 1 
1 1 1 1 1 1 1 1 1 
1 1 1 1 1 1 1 1 1 
1 1 1 1 1 1 1 1 1 
1 1 1 1 1 1 1 1 1 
1 1 1 1 1 1 1 1 1 
1 1 1 1 1 1 1 1 1 
1 1 1 1 1 1 1 1 1 
1 1 1 1 1 1 1 1 1 
1 1 1 1 1 1 1 1 1 
1 1 1 1 1 1 1 1 1 
1 1 1 1 1 1 1 1 1 
1 1 1 1 1 1 1 1 1 
1 1 1 1 1 1 1 1 1 
1 1 1 1 1 1 1 1 1 
1 1 1 1 1 1 1 1 1 
1 1 1 1 1 1 1 1 1 
1 1 1 1 1 1 1 1 1 
1 1 1 1 1 1 1 1 1 
1 1 1 1 1 1 1 1 1 
1 1 1 1 1 1 1 1 1 
1 1 1 1 1 1 1 1 1 
1 1 1 1 1 1 1 1 1 
1 1 1 1 1 1 1 1 1 
1 1 1 1 1 1 1 1 1 
1 1 1 1 1 1 1 1 1 
1 1 1 1 1 1 1 1 1 
1 1 1 1 1 1 1 1 1 
1 1 1 1 1 1 1 1 1 
1 1 1 1 1 1 1 1 1 
1 1 1 1 1 1 1 1 1 
1 1 1 1 1 1 1 1 1 
1 1 1 1 1 1 1 1 1 
1 1 1 1 1 1 1 1 1 
1 1 1 1 1 1 1 1 1 
1 1 1 1 1 1 1 1 1 
1 1 1 1 1 1 1 1 1 
1 1 1 1 1 1 1 1 1 
1 1 1 1 1 1 1 1 1 
1 1 1 1 1 1 1 1 1 
1 1 1 1 1 1 1 1 1 
1 1 1 1 1 1 1 1 1 
1 1 1 1 1 1 1 1 1 
1 1 1 1 1 1 1 1 1 
1 1 1 1 1 1 1 1 1 
1 1 1 1 1 1 1 1 1 
1 1 1 1 1 1 1 1 1 
1 1 1 1 1 1 1 1 1 
1 1 1 1 1 1 1 1 1 
1 1 1 1 1 1 1 1 1 
1 1 1 1 1 1 1 1 1 
1 1 1 1 1 1 1 1 1 
1 1 1 1 1 1 1 1 1 
1 1 1 1 1 1 1 1 1 
1 1 1 1 1 1 1 1 1 
1 1 1 1 1 1 1 1 1 
1 1 1 1 1 1 1 1 1 
1 1 1 1 1 1 1 1 1 
1 1 1 1 1 1 1 1 1 
1 1 1 1 1 1 1 1 1 
1 1 1 1 1 1 1 1 1 
1 1 1 1 1 1 1 1 1 
1 1 1 1 1 1 1 1 1 
1 1 1 1 1 1 1 1 1 
1 1 1 1 1 1 1 1 1 
1 1 1 1 1 1 1 1 1 
1 1 1 1 1 1 1 1 1 
1 1 1 1 1 1 1 1 1 
1 1 1 1 1 1 1 1 1 
1 1 1 1 1 1 1 1 1 
1 1 1 1 1 1 1 1 1 
1 1 1 1 1 1 1 1 1 
1 1 1 1 1 1 1 1 1 
1 1 1 1 1 1 1 1 1 
1 1 1 1 1 1 1 1 1 
1 1 1 1 1 1 1 1 1 
1 1 1 1 1 1 1 1 1 
1 1 1 1 1 1 1 1 1 
1 1 1 1 1 1 1 1 1 
1 1 1 1 1 1 1 1 1 
1 1 1 1 1 1 1 1 1 
1 1 1 1 1 1 1 1 1 
1 1 1 1 1 1 1 1 1 
1 1 1 1 1 1 1 1 1 
1 1 1 1 1 1 1 1 1 
1 1 1 1 1 1 1 1 1 
1 1 1 1 1 1 1 1 1 
1 1 1 1 1 1 1 1 1 
1 1 1 1 1 1 1 1 1 
1 1 1 1 1 1 1 1 1 
1 1 1 1 1 1 1 1 1 
1 1 1 1 1 1 1 1 1 
1 1 1 1 1 1 1 1 1 
1 1 1 1 1 1 1 1 1 
1 1 1 1 1 1 1 1 1 
1 1 1 1 1 1 1 1 1 
1 1 1 1 1 1 1 1 1 
1 1 1 1 1 1 1 1 1 
1 1 1 1 1 1 1 1 1 
1 1 1 1 1 1 1 1 1 
1 1 1 1 1 1 1 1 1 
1 1 1 1 1 1 1 1 1 
1 1 1 1 1 1 1 1 1 
1 1 1 1 1 1 1 1 1 
1 1 1 1 1 1 1 1 1 
1 1 1 1 1 1 1 1 1 
1 1 1 1 1 1 1 1 1 
1 1 1 1 1 1 1 1 1 
1 1 1 1 1 1 1 1 1 
1 1 1 1 1 1 1 1 1 
1 1 1 1 1 1 1 1 1 
1 1 1 1 1 1 1 1 1 
1 1 1 1 1 1 1 1 1 
1 1 1 1 1 1 1 1 1 
1 1 1 1 1 1 1 1 1 
1 1 1 1 1 1 1 1 1 
1 1 1 1 1 1 1 1 1 
1 1 1 1 1 1 1 1 1 
1 1 1 1 1 1 1 1 1 
1 1 1 1 1 1 1 1 1 
1 1 1 1 1 1 1 1 1 
1 1 1 1 1 1 1 1 1 
1 1 1 1 1 1 1 1 1 
1 1 1 1 1 1 1 1 1 
1 1 1 1 1 1 1 1 1 
1 1 1 1 1 1 1 1 1 
1 1 1 1 1 1 1 1 1 
1 1 1 1 1 1 1 1 1 
1 1 1 1 1 1 1 1 1 
1 1 1 1 1 1 1 1 1 
1 1 1 1 1 1 1 1 1 
1 1 1 1 1 1 1 1 1 
1 1 1 1 1 1 1 1 1 
1 1 1 1 1 1 1 1 1 
1 1 1 1 1 1 1 1 1 
1 1 1 1 1 1 1 1 1 
1 1 1 1 1 1 1 1 1 
1 1 1 1 1 1 1 1 1 
1 1 1 1 1 1 1 1 1 
1 1 1 1 1 1 1 1 1 
1 1 1 1 1 1 1 1 1 
1 1 1 1 1 1 1 1 1 
1 1 1 1 1 1 1 1 1 
1 1 1 1 1 1 1 1 1 
1 1 1 1 1 1 1 1 1 
1 1 1 1 1 1 1 1 1 
1 1 1 1 1 1 1 1 1 
1 1 1 1 1 1 1 1 1 
1 1 1 1 1 1 1 1 1 
1 1 1 1 1 1 1 1 1 
1 1 1 1 1 1 1 1 1 
1 1 1 1 1 1 1 1 1 
1 1 1 1 1 1 1 1 1 
1 1 1 1 1 1 1 1 1 
1 1 1 1 1 1 1 1 1 
1 1 1 1 1 1 1 1 1 
1 1 1 1 1 1 1 1 1 
1 1 1 1 1 1 1 1 1 
1 1 1 1 1 1 1 1 1 
1 1 1 1 1 1 1 1 1 
1 1 1 1 1 1 1 1 1 
1 1 1 1 1 1 1 1 1 
1 1 1 1 1 1 1 1 1 
1 1 1 1 1 1 1 1 1 
1 1 1 1 1 1 1 1 1 
1 1 1 1 1 1 1 1 1 
1 1 1 1 1 1 1 1 1 
1 1 1 1 1 1 1 1 1 
1 1 1 1 1 1 1 1 1 
1 1 1 1 1 1 1 1 1 
1 1 1 1 1 1 1 1 1 
1 1 1 1 1 1 1 1 1 
1 1 1 1 1 1 1 1 1 
1 1 1 1 1 1 1 1 1 
1 1 1 1 1 1 1 1 1 
1 1 1 1 1 1 1 1 1 
1 1 1 1 1 1 1 1 1 
1 1 1 1 1 1 1 1 1 
1 1 1 1 1 1 1 1 1 
1 1 1 1 1 1 1 1 1 
1 1 1 1 1 1 1 1 1 
1 1 1 1 1 1 1 1 1 
1 1 1 1 1 1 1 1 1 
1 1 1 1 1 1 1 1 1 
1 1 1 1 1 1 1 1 1 
1 1 1 1 1 1 1 1 1 
1 1 1 1 1 1 1 1 1 
1 1 1 1 1 1 1 1 1 
1 1 1 1 1 1 1 1 1 
1 1 1 1 1 1 1 1 1 
1 1 1 1 1 1 1 1 1 
1 1 1 1 1 1 1 1 1 
1 1 1 1 1 1 1 1 1 
1 1 1 1 1 1 1 1 1 
1 1 1 1 1 1 1 1 1 
1 1 1 1 1 1 1 1 1 
1 1 1 1 1 1 1 1 1 
1 1 1 1 1 1 1 1 1 
1 1 1 1 1 1 1 1 1 
1 1 1 1 1 1 1 1 1 
1 1 1 1 1 1 1 1 1 
1 1 1 1 1 1 1 1 1 
1 1 1 1 1 1 1 1 1 
1 1 1 1 1 1 1 1 1 
1 1 1 1 1 1 1 1 1 
1 1 1 1 1 1 1 1 1 
1 1 1 1 1 1 1 1 1 
1 1 1 1 1 1 1 1 1 
1 1 1 1 1 1 1 1 1 
1 1 1 1 1 1 1 1 1 
1 1 1 1 1 1 1 1 1 
1 1 1 1 1 1 1 1 1 
1 1 1 1 1 1 1 1 1 
1 1 1 1 1 1 1 1 1 
1 1 1 1 1 1 1 1 1 
1 1 1 1 1 1 1 1 1 
1 1 1 1 1 1 1 1 1 
1 1 1 1 1 1 1 1 1 
1 1 1 1 1 1 1 1 1 
1 1 1 1 1 1 1 1 1 
1 1 1 1 1 1 1 1 1 
1 1 1 1 1 1 1 1 1 
1 1 1 1 1 1 1 1 1 
1 1 1 1 1 1 1 1 1 
1 1 1 1 1 1 1 1 1 
1 1 1 1 1 1 1 1 1 
1 1 1 1 1 1 1 1 1 
1 1 1 1 1 1 1 1 1 
1 1 1 1 1 1 1 1 1 
1 1 1 1 1 1 1 1 1 
1 1 1 1 1 1 1 1 1 
1 1 1 1 1 1 1 1 1 
1 1 1 1 1 1 1 1 1 
1 1 1 1 1 1 1 1 1 
1 1 1 1 1 1 1 1 1 
1 1 1 1 1 1 1 1 1 
1 1 1 1 1 1 1 1 1 
1 1 1 1 1 1 1 1 1 
1 1 1 1 1 1 1 1 1 
1 1 1 1 1 1 1 1 1 
1 1 1 1 1 1 1 1 1 
1 1 1 1 1 1 1 1 1 
1 1 1 1 1 1 1 1 1 
1 1 1 1 1 1 1 1 1 
1 1 1 1 1 1 1 1 1 
1 1 1 1 1 1 1 1 1 
1 1 1 1 1 1 1 1 1 
1 1 1 1 1 1 1 1 1 
1 1 1 1 1 1 1 1 1 
1 1 1 1 1 1 1 1 1 
1 1 1 1 1 1 1 1 1 
1 1 1 1 1 1 1 1 1 
1 1 1 1 1 1 1 1 1 
1 1 1 1 1 1 1 1 1 
1 1 1 1 1 1 1 1 1 
1 1 1 1 1 1 1 1 1 
1 1 1 1 1 1 1 1 1 
1 1 1 1 1 1 1 1 1 
1 1 1 1 1 1 1 1 1 
1 1 1 1 1 1 1 1 1 
1 1 1 1 1 1 1 1 1 
1 1 1 1 1 1 1 1 1 
1 1 1 1 1 1 1 1 1 
1 1 1 1 1 1 1 1 1 
1 1 1 1 1 1 1 1 1 
1 1 1 1 1 1 1 1 1 
1 1 1 1 1 1 1 1 1 
1 1 1 1 1 1 1 1 1 
1 1 1 1 1 1 1 1 1 
1 1 1 1 1 1 1 1 1 
1 1 1 1 1 1 1 1 1 
1 1 1 1 1 1 1 1 1 
1 1 1 1 1 1 1 1 1 
1 1 1 1 1 1 1 1 1 
1 1 1 1 1 1 1 1 1 
1 1 1 1 1 1 1 1 1 
1 1 1 1 1 1 1 1 1 
1 1 1 1 1 1 1 1 1 
1 1 1 1 1 1 1 1 1 
1 1 1 1 1 1 1 1 1 
1 1 1 1 1 1 1 1 1 
1 1 1 1 1 1 1 1 1 
1 1 1 1 1 1 1 1 1 
1 1 1 1 1 1 1 1 1 
1 1 1 1 1 1 1 1 1 
1 1 1 1 1 1 1 1 1 
1 1 1 1 1 1 1 1 1 
1 1 1 1 1 1 1 1 1 
1 1 1 1 1 1 1 1 1 
1 1 1 1 1 1 1 1 1 
1 1 1 1 1 1 1 1 1 
1 1 1 1 1 1 1 1 1 
1 1 1 1 1 1 1 1 1 
1 1 1 1 1 1 1 1 1 
1 1 1 1 1 1 1 1 1 
1 1 1 1 1 1 1 1 1 
1 1 1 1 1 1 1 1 1 
1 1 1 1 1 1 1 1 1 
1 1 1 1 1 1 1 1 1 
1 1 1 1 1 1 1 1 1 
1 1 1 1 1 1 1 1 1 
1 1 1 1 1 1 1 1 1 
1 1 1 1 1 1 1 1 1 
1 1 1 1 1 1 1 1 1 
1 1 1 1 1 1 1 1 1 
1 1 1 1 1 1 1 1 1 
1 1 1 1 1 1 1 1 1 
1 1 1 1 1 1 1 1 1 
1 1 1 1 1 1 1 1 1 
1 1 1 1 1 1 1 1 1 
1 1 1 1 1 1 1 1 1 
1 1 1 1 1 1 1 1 1 
1 1 1 1 1 1 1 1 1 
1 1 1 1 1 1 1 1 1 
1 1 1 1 1 1 1 1 1 
1 1 1 1 1 1 1 1 1 
1 1 1 1 1 1 1 1 1 
1 1 1 1 1 1 1 1 1 
1 1 1 1 1 1 1 1 1 
1 1 1 1 1 1 1 1 1 
1 1 1 1 1 1 1 1 1 
1 1 1 1 1 1 1 1 1 
1 1 1 1 1 1 1 1 1 
1 1 1 1 1 1 1 1 1 
1 1 1 1 1 1 1 1 1 
1 1 1 1 1 1 1 1 1 
1 1 1 1 1 1 1 1 1 
1 1 1 1 1 1 1 1 1 
1 1 1 1 1 1 1 1 1 
1 1 1 1 1 1 1 1 1 
1 1 1 1 1 1 1 1 1 
1 1 1 1 1 1 1 1 1 
1 1 1 1 1 1 1 1 1 
1 1 1 1 1 1 1 1 1 
1 1 1 1 1 1 1 1 1 
1 1 1 1 1 1 1 1 1 
1 1 1 1 1 1 1 1 1 
1 1 1 1 1 1 1 1 1 
1 1 1 1 1 1 1 1 1 
1 1 1 1 1 1 1 1 1 
1 1 1 1 1 1 1 1 1 
1 1 1 1 1 1 1 1 1 
1 1 1 1 1 1 1 1 1 
1 1 1 1 1 1 1 1 1 
1 1 1 1 1 1 1 1 1 
1 1 1 1 1 1 1 1 1 
1 1 1 1 1 1 1 1 1 
1 1 1 1 1 1 1 1 1 
1 1 1 1 1 1 1 1 1 
1 1 1 1 1 1 1 1 1 
1 1 1 1 1 1 1 1 1 
1 1 1 1 1 1 1 1 1 
1 1 1 1 1 1 1 1 1 
1 1 1 1 1 1 1 1 1 
1 1 1 1 1 1 1 1 1 
1 1 1 1 1 1 1 1 1 
1 1 1 1 1 1 1 1 1 
1 1 1 1 1 1 1 1 1 
1 1 1 1 1 1 1 1 1 
1 1 1 1 1 1 1 1 1 
1 1 1 1 1 1 1 1 1 
1 1 1 1 1 1 1 1 1 
1 1 1 1 1 1 1 1 1 
1 1 1 1 1 1 1 1 1 
1 1 1 1 1 1 1 1 1 
1 1 1 1 1 1 1 1 1 
1 1 1 1 1 1 1 1 1 
1 1 1 1 1 1 1 1 1 
1 1 1 1 1 1 1 1 1 
1 1 1 1 1 1 1 1 1 
1 1 1 1 1 1 1 1 1 
1 1 1 1 1 1 1 1 1 
1 1 1 1 1 1 1 1 1 
1 1 1 1 1 1 1 1 1 
1 1 1 1 1 1 1 1 1 
1 1 1 1 1 1 1 1 1 
1 1 1 1 1 1 1 1 1 
1 1 1 1 1 1 1 1 1 
1 1 1 1 1 1 1 1 1 
1 1 1 1 1 1 1 1 1 
1 1 1 1 1 1 1 1 1 
1 1 1 1 1 1 1 1 1 
1 1 1 1 1 1 1 1 1 
1 1 1 1 1 1 1 1 1 
1 1 1 1 1 1 1 1 1 
1 1 1 1 1 1 1 1 1 
1 1 1 1 1 1 1 1 1 
1 1 1 1 1 1 1 1 1 
1 1 1 1 1 1 1 1 1 
1 1 1 1 1 1 1 1 1 
1 1 1 1 1 1 1 1 1 
1 1 1 1 1 1 1 1 1 
1 1 1 1 1 1 1 1 1 
1 1 1 1 1 1 1 1 1 
1 1 1 1 1 1 1 1 1 
1 1 1 1 1 1 1 1 1 
1 1 1 1 1 1 1 1 1 
1 1 1 1 1 1 1 1 1 
1 1 1 1 1 1 1 1 1 
1 1 1 1 1 1 1 1 1 
1 1 1 1 1 1 1 1 1 
1 1 1 1 1 1 1 1 1 
1 1 1 1 1 1 1 1 1 
1 1 1 1 1 1 1 1 1 
1 1 1 1 1 1 1 1 1 
1 1 1 1 1 1 1 1 1 
1 1 1 1 1 1 1 1 1 
1 1 1 1 1 1 1 1 1 
1 1 1 1 1 1 1 1 1 
1 1 1 1 1 1 1 1 1 
1 1 1 1 1 1 1 1 1 
1 1 1 1 1 1 1 1 1 
1 1 1 1 1 1 1 1 1 
1 1 1 1 1 1 1 1 1 
1 1 1 1 1 1 1 1 1 
1 1 1 1 1 1 1 1 1 
1 1 1 1 1 1 1 1 1 
1 1 1 1 1 1 1 1 1 
1 1 1 1 1 1 1 1 1 
1 1 1 1 1 1 1 1 1 
1 1 1 1 1 1 1 1 1 
1 1 1 1 1 1 1 1 1 
1 1 1 1 1 1 1 1 1 
1 1 1 1 1 1 1 1 1 
1 1 1 1 1 1 1 1 1 
1 1 1 1 1 1 1 1 1 
1 1 1 1 1 1 1 1 1 
1 1 1 1 1 1 1 1 1 
1 1 1 1 1 1 1 1 1 
1 1 1 1 1 1 1 1 1 
1 1 1 1 1 1 1 1 1 
1 1 1 1 1 1 1 1 1 
1 1 1 1 1 1 1 1 1 
1 1 1 1 1 1 1 1 1 
1 1 1 1 1 1 1 1 1 
1 1 1 1 1 1 1 1 1 
1 1 1 1 1 1 1 1 1 
1 1 1 1 1 1 1 1 1 
1 1 1 1 1 1 1 1 1 
1 1 1 1 1 1 1 1 1 
1 1 1 1 1 1 1 1 1 
1 1 1 1 1 1 1 1 1 
1 1 1 1 1 1 1 1 1 
1 1 1 1 1 1 1 1 1 
1 1 1 1 1 1 1 1 1 
1 1 1 1 1 1 1 1 1 
1 1 1 1 1 1 1 1 1 
1 1 1 1 1 1 1 1 1 
1 1 1 1 1 1 1 1 1 
1 1 1 1 1 1 1 1 1 
1 1 1 1 1 1 1 1 1 
1 1 1 1 1 1 1 1 1 
1 1 1 1 1 1 1 1 1 
1 1 1 1 1 1 1 1 1 
1 1 1 1 1 1 1 1 1 
1 1 1 1 1 1 1 1 1 
1 1 1 1 1 1 1 1 1 
1 1 1 1 1 1 1 1 1 
1 1 1 1 1 1 1 1 1 
1 1 1 1 1 1 1 1 1 
1 1 1 1 1 1 1 1 1 
1 1 1 1 1 1 1 1 1 
1 1 1 1 1 1 1 1 1 
1 1 1 1 1 1 1 1 1 
1 1 1 1 1 1 1 1 1 
1 1 1 1 1 1 1 1 1 
1 1 1 1 1 1 1 1 1 
1 1 1 1 1 1 1 1 1 
1 1 1 1 1 1 1 1 1 
1 1 1 1 1 1 1 1 1 
1 1 1 1 1 1 1 1 1 
1 1 1 1 1 1 1 1 1 
1 1 1 1 1 1 1 1 1 
1 1 1 1 1 1 1 1 1 
1 1 1 1 1 1 1 1 1 
1 1 1 1 1 1 1 1 1 
1 1 1 1 1 1 1 1 1 
1 1 1 1 1 1 1 1 1 
1 1 1 1 1 1 1 1 1 
1 1 1 1 1 1 1 1 1 
1 1 1 1 1 1 1 1 1 
1 1 1 1 1 1 1 1 1 
1 1 1 1 1 1 1 1 1 
1 1 1 1 1 1 1 1 1 
1 1 1 1 1 1 1 1 1 
1 1 1 1 1 1 1 1 1 
1 1 1 1 1 1 1 1 1 
1 1 1 1 1 1 1 1 1 
1 1 1 1 1 1 1 1 1 
1 1 1 1 1 1 1 1 1 
1 1 1 1 1 1 1 1 1 
1 1 1 1 1 1 1 1 1 
1 1 1 1 1 1 1 1 1 
1 1 1 1 1 1 1 1 1 
1 1 1 1 1 1 1 1 1 
1 1 1 1 1 1 1 1 1 
1 1 1 1 1 1 1 1 1 
1 1 1 1 1 1 1 1 1 
1 1 1 1 1 1 1 1 1 
1 1 1 1 1 1 1 1 1 
1 1 1 1 1 1 1 1 1 
1 1 1 1 1 1 1 1 1 
1 1 1 1 1 1 1 1 1 
1 1 1 1 1 1 1 1 1 
1 1 1 1 1 1 1 1 1 
1 1 1 1 1 1 1 1 1 
1 1 1 1 1 1 1 1 1 
1 1 1 1 1 1 1 1 1 
1 1 1 1 1 1 1 1 1 
1 1 1 1 1 1 1 1 1 
1 1 1 1 1 1 1 1 1 
1 1 1 1 1 1 1 1 1 
1 1 1 1 1 1 1 1 1 
1 1 1 1 1 1 1 1 1 
1 1 1 1 1 1 1 1 1 
1 1 1 1 1 1 1 1 1 
1 1 1 1 1 1 1 1 1 
1 1 1 1 1 1 1 1 1 
1 1 1 1 1 1 1 1 1 
1 1 1 1 1 1 1 1 1 
1 1 1 1 1 1 1 1 1 
1 1 1 1 1 1 1 1 1 
1 1 1 1 1 1 1 1 1 
1 1 1 1 1 1 1 1 1 
1 1 1 1 1 1 1 1 1 
1 1 1 1 1 1 1 1 1 
1 1 1 1 1 1 1 1 1 
1 1 1 1 1 1 1 1 1 
1 1 1 1 1 1 1 1 1 
1 1 1 1 1 1 1 1 1 
1 1 1 1 1 1 1 1 1 
1 1 1 1 1 1 1 1 1 
1 1 1 1 1 1 1 1 1 
1 1 1 1 1 1 1 1 1 
1 1 1 1 1 1 1 1 1 
1 1 1 1 1 1 1 1 1 
1 1 1 1 1 1 1 1 1 
1 1 1 1 1 1 1 1 1 
1 1 1 1 1 1 1 1 1 
1 1 1 1 1 1 1 1 1 
1 1 1 1 1 1 1 1 1 
1 1 1 1 1 1 1 1 1 
1 1 1 1 1 1 1 1 1 
1 1 1 1 1 1 1 1 1 
1 1 1 1 1 1 1 1 1 
1 1 1 1 1 1 1 1 1 
1 1 1 1 1 1 1 1 1 
1 1 1 1 1 1 1 1 1 
1 1 1 1 1 1 1 1 1 
1 1 1 1 1 1 1 1 1 
1 1 1 1 1 1 1 1 1 
1 1 1 1 1 1 1 1 1 
1 1 1 1 1 1 1 1 1 
1 1 1 1 1 1 1 1 1 
1 1 1 1 1 1 1 1 1 
1 1 1 1 1 1 1 1 1 
1 1 1 1 1 1 1 1 1 
1 1 1 1 1 1 1 1 1 
1 1 1 1 1 1 1 1 1 
1 1 1 1 1 1 1 1 1 
1 1 1 1 1 1 1 1 1 
1 1 1 1 1 1 1 1 1 
1 1 1 1 1 1 1 1 1 
1 1 1 1 1 1 1 1 1 
1 1 1 1 1 1 1 1 1 
1 1 1 1 1 1 1 1 1 
1 1 1 1 1 1 1 1 1 
1 1 1 1 1 1 1 1 1 
1 1 1 1 1 1 1 1 1 
1 1 1 1 1 1 1 1 1 
1 1 1 1 1 1 1 1 1 
1 1 1 1 1 1 1 1 1 
1 1 1 1 1 1 1 1 1 
1 1 1 1 1 1 1 1 1 
1 1 1 1 1 1 1 1 1 
1 1 1 1 1 1 1 1 1 
1 1 1 1 1 1 1 1 1 
1 1 1 1 1 1 1 1 1 
1 1 1 1 1 1 1 1 1 
1 1 1 1 1 1 1 1 1 
1 1 1 1 1 1 1 1 1 
1 1 1 1 1 1 1 1 1 
1 1 1 1 1 1 1 1 1 
1 1 1 1 1 1 1 1 1 
1 1 1 1 1 1 1 1 1 
1 1 1 1 1 1 1 1 1 
1 1 1 1 1 1 1 1 1 
1 1 1 1 1 1 1 1 1 
1 1 1 1 1 1 1 1 1 
1 1 1 1 1 1 1 1 1 
1 1 1 1 1 1 1 1 1 
1 1 1 1 1 1 1 1 1 
1 1 1 1 1 1 1 1 1 
1 1 1 1 1 1 1 1 1 
1 1 1 1 1 1 1 1 1 
1 1 1 1 1 1 1 1 1 
1 1 1 1 1 1 1 1 1 
1 1 1 1 1 1 1 1 1 
1 1 1 1 1 1 1 1 1 
1 1 1 1 1 1 
NORMALS normals float
0 0 -1 0 -0.6981 -0.716 -0.572416 -0.572416 -0.587094 
0.6981 0 -0.716 0 -0.0249922 -0.999688 -0.567607 -0.582161 -0.582161 
-0.567607 -0.582161 -0.582161 0.572416 0.572416 -0.587094 0.577224 0.562423 -0.592024 
-0.0249922 0 -0.999688 -0.582161 -0.567607 -0.582161 -0.582161 -0.567607 -0.582161 
0.0249844 0.0249844 -0.999376 0.706996 0.0176749 -0.706996 0 -0.0249922 -0.999688 
-0.567607 -0.582161 -0.582161 -0.567607 -0.582161 -0.582161 0.562423 0.577224 -0.592024 
0.577224 0.562423 -0.592024 0.0176749 0.706996 -0.706996 -0.0249922 0 -0.999688 
-0.582161 -0.567607 -0.582161 -0.582161 -0.567607 -0.582161 0.0249844 0.0249844 -0.999376 
0.706996 0.0176749 -0.706996 0 -0.0249922 -0.999688 -0.567607 -0.582161 -0.582161 
-0.697988 -0.0178971 -0.715885 0.562423 0.577224 -0.592024 0.577224 0.562423 -0.592024 
0.0176749 0.706996 -0.706996 0 0 -1 -0.6981 0 -0.716 
0.6981 0 -0.716 0 0 -1 -0.6981 0 -0.716 
0.572416 -0.572416 -0.587094 -0.0249922 0 -0.999688 -0.707107 0 -0.707107 
0.572416 -0.572416 -0.587094 0 0 -1 0 0 -1 
0 -0.6981 -0.716 0 0 -1 0 -0.6981 -0.716 
0.0249844 -0.0249844 -0.999376 0.0176749 -0.706996 -0.706996 0.706996 -0.0176749 -0.706996 
0 0.0249922 -0.999688 -0.577224 -0.562423 -0.592024 0.567607 0.582161 -0.582161 
0.572416 0.572416 -0.587094 0 0.6981 -0.716 -0.572416 0.572416 -0.587094 
-0.567607 0.582161 -0.582161 0 0.0249922 -0.999688 0.697988 0.0178971 -0.715885 
0 0 -1 -0.572416 -0.572416 -0.587094 -0.999671 0 -0.0256326 
0.567607 0.582161 -0.582161 0.572416 0.572416 -0.587094 0 0.707107 -0.707107 
0 0.6981 -0.716 -0.0176749 -0.706996 -0.706996 -0.0249844 -0.999376 -0.0249844 
-0.57735 -0.57735 -0.57735 0.0249844 -0.0249844 -0.999376 0.0249844 -0.999376 -0.0249844 
0.999376 -0.0249844 -0.0249844 -0.57735 -0.57735 -0.57735 -0.57735 -0.57735 -0.57735 
-0.57735 -0.57735 -0.57735 0.707107 0 -0.707107 0.999688 0 -0.0249922 
-0.57735 -0.57735 -0.57735 -0.57735 -0.57735 -0.57735 -0.57735 -0.57735 -0.57735 
0.572416 0.572416 -0.587094 0.0249922 0 -0.999688 0.999688 0 -0.0249922 
-0.57735 -0.57735 -0.57735 -0.57735 -0.57735 -0.57735 -0.57735 -0.57735 -0.57735 
0.6981 0 -0.716 0.0249922 0 -0.999688 0.999688 0 -0.0249922 
-0.57735 -0.57735 -0.57735 -0.57735 -0.57735 -0.57735 -0.57735 -0.57735 -0.57735 
0.572416 0.572416 -0.587094 0 0.6981 -0.716 0 0 -1 
0.0249922 0 -0.999688 0.999688 0 -0.0249922 -0.57735 -0.57735 -0.57735 
-0.57735 -0.57735 -0.57735 -0.57735 -0.57735 -0.57735 0.6981 0 -0.716 
0 0 -1 0 0 -1 0.0249922 0 -0.999688 
0.999688 0 -0.0249922 -0.706996 -0.0176749 -0.706996 -0.57735 -0.57735 -0.57735 
-0.999376 -0.0249844 -0.0249844 0.572416 0.572416 -0.587094 0 0.6981 -0.716 
0 0 -1 0 0 -1 0 0 -1 
0.0249922 0 -0.999688 0.999688 0 -0.0249922 -0.707107 0 -0.707107 
-0.999688 0 -0.0249922 0.6981 0 -0.716 0 0 -1 
0 0 -1 0 0 -1 0 0 -1 
0.0249922 0 -0.999688 0.999688 0 -0.0249922 -0.707107 0 -0.707107 
-0.999688 0 -0.0249922 0.572416 -0.572416 -0.587094 0 -0.6981 -0.716 
0 -0.6981 -0.716 0 -0.6981 -0.716 0 0 -1 
0.0249922 0 -0.999688 0.999688 0 -0.0249922 -0.707107 0 -0.707107 
-0.999688 0 -0.0249922 0.6981 0 -0.716 0.0249922 0 -0.999688 
0.582161 -0.567607 -0.582161 -0.582161 -0.567607 -0.582161 -0.999688 0 -0.0249922 
0.572416 0.572416 -0.587094 0 0.6981 -0.716 -0.572416 0.572416 -0.587094 
0.6981 0 -0.716 0 0 -1 0.567607 -0.582161 -0.582161 
0 -0.0249922 -0.999688 0.0249922 0 -0.999688 0.0256242 -0.999343 -0.0256242 
0.999688 0 -0.0249922 -1 0 0 0.572416 0.572416 -0.587094 
0 0.0249922 -0.999688 0 0.0249922 -0.999688 0 0.0249922 -0.999688 
0 0.707107 -0.707107 0 0.0249922 -0.999688 0 0.0249922 -0.999688 
0.0249844 0.0249844 -0.999376 0.57735 0.57735 -0.57735 0.582161 0.567607 -0.582161 
-0.0178971 0.697988 -0.715885 -0.999688 0 -0.0249922 0.0249922 0 -0.999688 
0.715885 0.697988 -0.0178971 0.697988 0.715885 -0.0178971 0 0.999688 -0.0249922 
0 0.999688 -0.0249922 0 0.999688 -0.0249922 0 0.999688 -0.0249922 
0 0.999688 -0.0249922 0.0249844 0.999376 -0.0249844 -0.0249922 0 -0.999688 
-0.999688 0 -0.0249922 0.0249922 0 -0.999688 0.999688 0 -0.0249922 
-0.0249922 0 -0.999688 -0.999688 0 -0.0249922 0.0249844 0.0249844 -0.999376 
0.999376 0.0249844 -0.0249844 0 0.0249922 -0.999688 -0.999343 0.0256242 -0.0256242 
0.567607 0.582161 -0.582161 0.57735 0.57735 -0.57735 0 0.999688 -0.0249922 
-0.57735 -0.57735 -0.57735 -0.0176749 -0.706996 -0.706996 -0.57735 -0.57735 -0.57735 
0 -1 0 0.0249922 -0.999688 0 0.999688 -0.0249922 0 
-0.0249844 -0.0249844 -0.999376 -0.0176749 -0.706996 -0.706996 -0.706996 -0.0176749 -0.706996 
-0.567607 -0.582161 -0.582161 -0.567607 -0.582161 -0.582161 1 0 0 
-0.582161 -0.567607 -0.582161 -0.582161 -0.567607 -0.582161 1 0 0 
-0.0249844 -0.0249844 -0.999376 -0.0176749 -0.706996 -0.706996 -0.706996 -0.0176749 -0.706996 
-0.567607 -0.582161 -0.582161 -0.567607 -0.582161 -0.582161 1 0 0 
-0.582161 -0.567607 -0.582161 -0.582161 -0.567607 -0.582161 1 0 0 
-0.57735 -0.57735 -0.57735 -0.57735 -0.57735 -0.57735 -0.999376 -0.0249844 -0.0249844 
1 0 0 -1 0 0 0.716 0 -0.6981 
-1 0 0 0.716 0 -0.6981 -1 0 0 
0.587094 -0.572416 -0.572416 -1 0 0 0.57735 -0.57735 -0.57735 
0.57735 -0.57735 -0.57735 0.57735 -0.57735 -0.57735 -1 0 0 
0.582161 -0.582161 -0.567607 0.999688 -0.0249922 0 -1 0 0 
0.57735 0.57735 -0.57735 0.999376 0.0249844 -0.0249844 -1 0 0 
0.587094 0.572416 -0.572416 0.572416 0.587094 -0.572416 0 0.716 -0.6981 
0 0.716 -0.6981 0 0.716 -0.6981 0 0.716 -0.6981 
0 0.716 -0.6981 0 0.716 -0.6981 0.0176749 0.706996 -0.706996 
-1 0 0 0.716 0 -0.6981 -1 0 0 
0.716 0 -0.6981 -0.999688 0.0249922 0 0.57735 0.57735 -0.57735 
0.706996 0.0176749 -0.706996 -0.0249922 0.999688 0 0.0249844 0.999376 -0.0249844 
0 -0.707107 -0.707107 0 -0.707107 -0.707107 -0.567607 -0.582161 -0.582161 
0.567607 -0.582161 -0.582161 -0.0249844 -0.0249844 -0.999376 -0.0176749 -0.706996 -0.706996 
-0.57735 -0.57735 -0.57735 0 -0.707107 -0.707107 0 -0.707107 -0.707107 
-0.567607 -0.582161 -0.582161 -0.567607 -0.582161 -0.582161 0.572416 -0.587094 -0.572416 
0.0249922 -0.999688 0 0.999688 -0.0249922 0 -0.0249844 -0.0249844 -0.999376 
-0.57735 -0.57735 -0.57735 -0.57735 -0.57735 -0.57735 -0.6981 0 -0.716 
1 0 0 -0.0249844 -0.0249844 -0.999376 -0.57735 -0.57735 -0.57735 
-0.706996 -0.0176749 -0.706996 0 -0.6981 -0.716 -0.572416 -0.572416 -0.587094 
1 0 0 -0.707107 0 -0.707107 -0.707107 0 -0.707107 
1 0 0 -0.582161 -0.567607 -0.582161 -0.707107 0 -0.707107 
1 0 0 -0.716 0 -0.6981 0.587094 -0.572416 -0.572416 
-0.716 0 -0.6981 0.567607 -0.582161 -0.582161 0.697988 -0.0178971 -0.715885 
0.0249844 -0.0249844 -0.999376 0.0249844 -0.999376 -0.0249844 0.999376 -0.0249844 -0.0249844 
-0.716 0 -0.6981 0.6981 0 -0.716 0.0249922 0 -0.999688 
0.999688 0 -0.0249922 -0.716 0 -0.6981 0.572416 -0.572416 -0.587094 
0.0249922 0 -0.999688 0.999688 0 -0.0249922 -0.716 0 -0.6981 
0.582161 -0.567607 -0.582161 0.999688 0 -0.0249922 -0.716 0 -0.6981 
1 0 0 -0.716 0 -0.6981 1 0 0 
-0.716 0 -0.6981 0.572416 0.572416 -0.587094 0 0.6981 -0.716 
0 0.6981 -0.716 0 0.6981 -0.716 0 0.6981 -0.716 
0 0.6981 -0.716 0 0.6981 -0.716 0.0176749 0.706996 -0.706996 
0.999376 0.0249844 -0.0249844 -0.716 0 -0.6981 0.6981 0 -0.716 
0 0 -1 0 0 -1 0 0 -1 
0 0 -1 0 0 -1 0.0249844 0.0249844 -0.999376 
0.57735 0.57735 -0.57735 0.57735 0.57735 -0.57735 -0.716 0 -0.6981 
0.6981 0 -0.716 0 0 -1 0 0 -1 
0 0 -1 0 0 -1 0.0249844 0.0249844 -0.999376 
0.706996 0.706996 -0.0176749 0.706996 0.706996 -0.0176749 -0.715885 0.0178971 -0.697988 
0.6981 0 -0.716 0 0 -1 0 0 -1 
0 0 -1 0.0249844 0.0249844 -0.999376 0.57735 0.57735 -0.57735 
0.57735 0.57735 -0.57735 -0.0249922 0.999688 0 -0.572416 0.587094 -0.572416 
-0.0249922 0 -0.999688 -0.582161 0.567607 -0.582161 0 0 -1 