# vtk DataFile Version 3.0
vtk output
ASCII
DATASET POLYDATA
POINTS 4500 float
77 92 121.014 77 91.0145 122 76.0145 92 122 
78 92 121.014 78 91.0145 122 79 92 121.014 
79 91.0145 122 80 92 121.014 80 91.0145 122 
81 92 121.014 81 91.0145 122 82 92 121.014 
82 91.0145 122 83 92 121.014 83 91.0145 122 
84 92 121.014 84 91.0145 122 85 92 121.014 
85 91.0145 122 86 92 121.014 86 91.0145 122 
87 92 121.014 87 91.0145 122 88 92 121.014 
88 91.0145 122 88.9855 92 122 77 93 121.014 
76.0145 93 122 78 93 121.014 79 93 121.014 
80 93 121.014 81 93 121.014 82 93 121.014 
83 93 121.014 84 93 121.014 85 93 121.014 
86 93 121.014 87 93 121.014 88 93 121.014 
88.9855 93 122 77 94 121.014 76.0145 94 122 
78 94 121.014 79 94 121.014 80 94 121.014 
81 94 121.014 82 94 121.014 83 94 121.014 
84 94 121.014 85 94 121.014 86 94 121.014 
87 94 121.014 88 94 121.014 88.9855 94 122 
77 95 121.014 76.0145 95 122 78 95 121.014 
79 95 121.014 80 95 121.014 81 95 121.014 
82 95 121.014 83 95 121.014 84 95 121.014 
85 95 121.014 86 95 121.014 87 95 121.014 
88 95 121.014 88.9855 95 122 77 96 121.014 
76.0145 96 122 78 96 121.014 79 96 121.014 
80 96 121.014 81 96 121.014 82 96 121.014 
83 96 121.014 84 96 121.014 85 96 121.014 
86 96 121.014 87 96 121.014 88 96 121.014 
88.9855 96 122 77 97 121.014 76.0145 97 122 
78 97 121.014 79 97 121.014 80 97 121.014 
81 97 121.014 82 97 121.014 83 97 121.014 
84 97 121.014 85 97 121.014 86 97 121.014 
87 97 121.014 88 97 121.014 88.9855 97 122 
77 97.9855 122 78 97.9855 122 78.0145 98 122 
79 98 121.014 80 98 121.014 81 98 121.014 
82 98 121.014 83 98 121.014 84 98 121.014 
85 98 121.014 86 98 121.014 87 98 121.014 
88 98 121.014 88.9855 98 122 79 99 121.014 
78.0145 99 122 80 99 121.014 81 99 121.014 
82 99 121.014 83 99 121.014 84 99 121.014 
85 99 121.014 86 99 121.014 87 99 121.014 
88 99 121.014 88.9855 99 122 79 100 121.014 
78.0145 100 122 80 100 121.014 81 100 121.014 
82 100 121.014 83 100 121.014 84 100 121.014 
85 100 121.014 86 100 121.014 87 100 121.014 
88 100 121.014 88.9855 100 122 79 101 121.014 
78.0145 101 122 80 101 121.014 81 101 121.014 
82 101 121.014 83 101 121.014 84 101 121.014 
85 101 121.014 86 101 121.014 87 101 121.014 
88 101 121.014 88.9855 101 122 79 102 121.014 
78.0145 102 122 80 102 121.014 81 102 121.014 
82 102 121.014 83 102 121.014 84 102 121.014 
85 102 121.014 86 102 121.014 87 102 121.014 
88 102 121.014 88.9855 102 122 79 103 121.014 
78.0145 103 122 80 103 121.014 81 103 121.014 
82 103 121.014 83 103 121.014 84 103 121.014 
85 103 121.014 86 103 121.014 87 103 121.014 
87.9855 103 122 88 102.986 122 79 103.986 122 
80 103.986 122 81 103.986 122 82 103.986 122 
83 103.986 122 84 103.986 122 85 103.986 122 
86 103.986 122 87 103.986 122 76 92 122.014 
76 91.0145 123 75.0145 92 123 77 91.0145 123 
78 91.0145 123 79 91.0145 123 80 91.0145 123 
81 91.0145 123 82 91.0145 123 83 91.0145 123 
84 91.0145 123 85 91.0145 123 86 91.0145 123 
87 91.0145 123 88 91.0145 123 88.9855 92 123 
76 93 122.014 75.0145 93 123 88.9855 93 123 
76 94 122.014 75.0145 94 123 88.9855 94 123 
76 95 122.014 75.0145 95 123 88.9855 95 123 
76 96 122.014 75.0145 96 123 88.9855 96 123 
76 96.9855 123 76.0145 97 123 88.9855 97 123 
77 97.9855 123 78 98 122.014 77.0145 98 123 
88.9855 98 123 78 99 122.014 77.0145 99 123 
88.9855 99 123 78 100 122.014 77.0145 100 123 
88.9855 100 123 78 101 122.014 77.0145 101 123 
88.9855 101 123 78 102 122.014 77.0145 102 123 
88.9855 102 123 78 102.986 123 78.0145 103 123 
88 103 122.014 88.9855 103 123 79 103.986 123 
80 103.986 123 81 103.986 123 82 103.986 123 
83 103.986 123 84 103.986 123 85 103.986 123 
86 103.986 123 87 103.986 123 88 103.986 123 
76 92 123.986 76.0145 92 124 77 91.0145 124 
78 91.0145 124 79 91.0145 124 80 91.0145 124 
81 91.0145 124 82 91.0145 124 83 91.0145 124 
84 91.0145 124 85 91.0145 124 86 91.0145 124 
87 91.0145 124 88 91.0145 124 88.9855 92 124 
76 93 123.986 76.0145 93 124 88.9855 93 124 
76 94 123.986 76.0145 94 124 88.9855 94 124 
76 95 123.986 76.0145 95 124 88.9855 95 124 
76 96 123.986 76.0145 96 124 89 95.0145 124 
89 96 123.014 90 96 123.014 90 95.0145 124 
90.9855 96 124 76.0145 97 124 89 97 123.014 
90 97 123.014 90.9855 97 124 77 98 123.014 
76.0145 98 124 89 98 123.014 90 98 123.014 
90.9855 98 124 77 99 123.014 76.0145 99 124 
89 99 123.014 90 99 123.014 90.9855 99 124 
77 99.9855 124 78 99.9855 124 78 100 123.986 
78.0145 100 124 89 100 123.014 90 100 123.014 
90.9855 100 124 78 101 123.986 78.0145 101 124 
89 101 123.014 90 101 123.014 90.9855 101 124 
78 102 123.986 78.0145 102 124 89 102 123.014 
90 102 123.014 90.9855 102 124 78.0145 103 124 
89 103 123.014 90 103 123.014 90.9855 103 124 
79 103.986 124 80 103.986 124 81 103.986 124 
82 103.986 124 83 103.986 124 84 103.986 124 
85 103.986 124 86 103.986 124 87 103.986 124 
88 103.986 124 89 104 123.014 88.0145 104 124 
90 104 123.014 90.9855 104 124 89 105 123.014 
88.0145 105 124 89.9855 105 124 90 104.986 124 
89 105.986 124 80 91 124.014 80 90.0145 125 
79.0145 91 125 81 91 124.014 81 90.0145 125 
82 91 124.014 82 90.0145 125 83 91 124.014 
83 90.0145 125 84 91 124.014 84 90.0145 125 
85 91 124.014 85 90.0145 125 86 91 124.014 
86 90.0145 125 87 91 124.014 87 90.0145 125 
88 91 124.014 88 90.0145 125 89 91 124.014 
89 90.0145 125 90 91 124.014 90 90.0145 125 
90.9855 91 125 77 91.0145 125 76.0145 92 125 
78 91.0145 125 79 91.0145 125 89 91.9855 125 
88.9855 92 125 90 91.9855 125 76.0145 93 125 
88.9855 93 125 76.0145 94 125 88.9855 94 125 
76.0145 95 125 89 94.0145 125 89 95 124.014 
90 95 124.014 90 94.0145 125 90.9855 95 125 
76.0145 96 125 90.9855 96 125 76.0145 97 125 
90.9855 97 125 76.0145 98 125 90.9855 98 125 
76.0145 99 125 90.9855 99 125 77 99.9855 125 
78 99.9855 125 78.0145 100 125 90.9855 100 125 
78.0145 101 125 90.9855 101 125 78.0145 102 125 
90.9855 102 125 78.0145 103 125 90.9855 103 125 
79 103.986 125 80 103.986 125 81 103.986 125 
82 103.986 125 83 103.986 125 84 103.986 125 
85 103.986 125 86 103.986 125 87 103.986 125 
88 104 124.014 87.0145 104 125 90.9855 104 125 
88 104.986 125 88.0145 105 125 89.9855 105 125 
90 104.986 125 89 105.986 125 89 88 125.014 
89 87.0145 126 88.0145 88 126 90 88 125.014 
90 87.0145 126 90.9855 88 126 88 89 125.014 
88 88.0145 126 87.0145 89 126 89 89 125.014 
90 89 125.014 90.9855 89 126 81 90 125.014 
81 89.0145 126 80.0145 90 126 82 90 125.014 
82 89.0145 126 83 90 125.014 83 89.0145 126 
84 90 125.014 84 89.0145 126 85 90 125.014 
85 89.0145 126 86 90 125.014 86 89.0145 126 
87 90 125.014 87 89.0145 126 88 90 125.014 
89 90 125.014 90 90 125.014 90.9855 90 126 
80 90.0145 126 79.0145 91 126 90.9855 91 126 
77 91.0145 126 76.0145 92 126 78 91.0145 126 
79 91.0145 126 89 92 125.014 90 92 125.014 
90.9855 92 126 76.0145 93 126 89 93 125.014 
90 93 125.014 90.9855 93 126 76.0145 94 126 
89 94 125.014 90 94 125.014 90.9855 94 126 
76.0145 95 126 90.9855 95 126 76.0145 96 126 
90.9855 96 126 76.0145 97 126 90.9855 97 126 
76.0145 98 126 90.9855 98 126 76.0145 99 126 
90.9855 99 126 77 99.9855 126 78 99.9855 126 
78.0145 100 126 90.9855 100 126 78.0145 101 126 
90.9855 101 126 78.0145 102 126 90.9855 102 126 
78.0145 103 126 90.9855 103 126 79 104 125.014 
78.0145 104 126 80 104 125.014 81 104 125.014 
82 104 125.014 83 104 125.014 84 104 125.014 
85 104 125.014 86 104 125.014 87 104 125.014 
90.9855 104 126 79 105 125.014 78.0145 105 126 
80 105 125.014 81 105 125.014 82 105 125.014 
83 105 125.014 84 105 125.014 85 105 125.014 
86 105 125.014 87 105 125.014 88 105 125.014 
89.9855 105 126 90 104.986 126 79 105.986 126 
80 105.986 126 80.0145 106 126 81 106 125.014 
82 106 125.014 83 106 125.014 84 106 125.014 
85 106 125.014 86 106 125.014 87 106 125.014 
88 106 125.014 89 105.986 126 88.9855 106 126 
81 107 125.014 80.0145 107 126 82 107 125.014 
83 107 125.014 84 107 125.014 85 107 125.014 
86 107 125.014 87 107 125.014 87.9855 107 126 
88 106.986 126 81 107.986 126 82 107.986 126 
83 107.986 126 84 107.986 126 85 107.986 126 
86 107.986 126 87 107.986 126 89 87.0145 127 
88.0145 88 127 90 88 126.986 89.9855 88 127 
88 89 126.986 88.0145 89 127 90 88.0145 127 
90.9855 89 127 81 89.0145 127 80.0145 90 127 
82 89.0145 127 83 89.0145 127 84 89.0145 127 
85 89.0145 127 86 89.0145 127 87 89.0145 127 
88 89.0145 127 90 90 126.986 89.9855 90 127 
90 89.9855 127 77 91 126.014 77 90.0145 127 
76.0145 91 127 78 91 126.014 78 90.0145 127 
79 91 126.014 79 90.0145 127 80 90.0145 127 
90 91 126.986 89.9855 91 127 76.0145 92 127 
90 91.0145 127 90.9855 92 127 76.0145 93 127 
90.9855 93 127 76.0145 94 127 90.9855 94 127 
76.0145 95 127 90.9855 95 127 76.0145 96 127 
90.9855 96 127 76.0145 97 127 90.9855 97 127 
76.0145 98 127 90.9855 98 127 77 98.9855 127 
77 99 126.986 78 98.9855 127 78 99 126.986 
78.0145 99 127 90.9855 99 127 78.0145 100 127 
90.9855 100 127 78.0145 101 127 90.9855 101 127 
78.0145 102 127 90.9855 102 127 78.0145 103 127 
90.9855 103 127 78.0145 104 127 90.9855 104 127 
79 104.986 127 79 105 126.986 79.0145 105 127 
89.9855 105 127 90 104.986 127 80 105.986 127 
80.0145 106 127 88.9855 106 127 89 105.986 127 
80.0145 107 127 87.9855 107 127 88 106.986 127 
81 107.986 127 82 107.986 127 83 107.986 127 
84 107.986 127 85 107.986 127 86 107.986 127 
87 107.986 127 89 88 127.986 89 89 127.986 
90 89 127.986 81 90 127.986 82 90 127.986 
83 90 127.986 84 90 127.986 85 90 127.986 
86 90 127.986 87 90 127.986 88 90 127.986 
89 90 127.986 77 91 127.986 78 91 127.986 
79 91 127.986 80 91 127.986 81 91 127.986 
82 91 127.986 83 91 127.986 84 91 127.986 
85 91 127.986 86 91 127.986 87 91 127.986 
88 91 127.986 89 91 127.986 77 91.0145 128 
76.0145 92 128 78 91.0145 128 79 91.0145 128 
80 91.0145 128 81 91.0145 128 82 91.0145 128 
83 91.0145 128 84 91.0145 128 85 91.0145 128 
86 91.0145 128 87 91.0145 128 88 91.0145 128 
89 91.0145 128 90 91.0145 128 90.9855 92 128 
76.0145 93 128 90.9855 93 128 77 93.9855 128 
77 94 127.986 78 93.9855 128 78 94 127.986 
78.0145 94 128 90.9855 94 128 77 95 127.986 
[...]
POINT_DATA 4500
SCALARS scalars float
LOOKUP_TABLE default
1 1 1 1 1 1 1 1 1 
1 1 1 1 1 1 1 1 1 
1 1 1 1 1 1 1 1 1 
1 1 1 1 1 1 1 1 1 
1 1 1 1 1 1 1 1 1 
1 1 1 1 1 1 1 1 1 
1 1 1 1 1 1 1 1 1 
1 1 1 1 1 1 1 1 1 
1 1 1 1 1 1 1 1 1 
1 1 1 1 1 1 1 1 1 
1 1 1 1 1 1 1 1 1 
1 1 1 1 1 1 1 1 1 
1 1 1 1 1 1 1 1 1 
1 1 1 1 1 1 1 1 1 
1 1 1 1 1 1 1 1 1 
1 1 1 1 1 1 1 1 1 
1 1 1 1 1 1 1 1 1 
1 1 1 1 1 1 1 1 1 
1 1 1 1 1 1 1 1 1 
1 1 1 1 1 1 1 1 1 
1 1 1 1 1 1 1 1 1 
1 1 1 1 1 1 1 1 1 
1 1 1 1 1 1 1 1 1 
1 1 1 1 1 1 1 1 1 
1 1 1 1 1 1 1 1 1 
1 1 1 1 1 1 1 1 1 
1 1 1 1 1 1 1 1 1 
1 1 1 1 1 1 1 1 1 
1 1 1 1 1 1 1 1 1 
1 1 1 1 1 1 1 1 1 
1 1 1 1 1 1 1 1 1 
1 1 1 1 1 1 1 1 1 
1 1 1 1 1 1 1 1 1 
1 1 1 1 1 1 1 1 1 
1 1 1 1 1 1 1 1 1 
1 1 1 1 1 1 1 1 1 
1 1 1 1 1 1 1 1 1 
1 1 1 1 1 1 1 1 1 
1 1 1 1 1 1 1 1 1 
1 1 1 1 1 1 1 1 1 
1 1 1 1 1 1 1 1 1 
1 1 1 1 1 1 1 1 1 
1 1 1 1 1 1 1 1 1 
1 1 1 1 1 1 1 1 1 
1 1 1 1 1 1 1 1 1 
1 1 1 1 1 1 1 1 1 
1 1 1 1 1 1 1 1 1 
1 1 1 1 1 1 1 1 1 
1 1 1 1 1 1 1 1 1 
1 1 1 1 1 1 1 1 1 
1 1 1 1 1 1 1 1 1 
1 1 1 1 1 1 1 1 1 
1 1 1 1 1 1 1 1 1 
1 1 1 1 1 1 1 1 1 
1 1 1 1 1 1 1 1 1 
1 1 1 1 1 1 1 1 1 
1 1 1 1 1 1 1 1 1 
1 1 1 1 1 1 1 1 1 
1 1 1 1 1 1 1 1 1 
1 1 1 1 1 1 1 1 1 
1 1 1 1 1 1 1 1 1 
1 1 1 1 1 1 1 1 1 
1 1 1 1 1 1 1 1 1 
1 1 1 1 1 1 1 1 1 
1 1 1 1 1 1 1 1 1 
1 1 1 1 1 1 1 1 1 
1 1 1 1 1 1 1 1 1 
1 1 1 1 1 1 1 1 1 
1 1 1 1 1 1 1 1 1 
1 1 1 1 1 1 1 1 1 
1 1 1 1 1 1 1 1 1 
1 1 1 1 1 1 1 1 1 
1 1 1 1 1 1 1 1 1 
1 1 1 1 1 1 1 1 1 
1 1 1 1 1 1 1 1 1 
1 1 1 1 1 1 1 1 1 
1 1 1 1 1 1 1 1 1 
1 1 1 1 1 1 1 1 1 
1 1 1 1 1 1 1 1 1 
1 1 1 1 1 1 1 1 1 
1 1 1 1 1 1 1 1 1 
1 1 1 1 1 1 1 1 1 
1 1 1 1 1 1 1 1 1 
1 1 1 1 1 1 1 1 1 
1 1 1 1 1 1 1 1 1 
1 1 1 1 1 1 1 1 1 
1 1 1 1 1 1 1 1 1 
1 1 1 1 1 1 1 1 1 
1 1 1 1 1 1 1 1 1 
1 1 1 1 1 1 1 1 1 
1 1 1 1 1 1 1 1 1 
1 1 1 1 1 1 1 1 1 
1 1 1 1 1 1 1 1 1 
1 1 1 1 1 1 1 1 1 
1 1 1 1 1 1 1 1 1 
1 1 1 1 1 1 1 1 1 
1 1 1 1 1 1 1 1 1 
1 1 1 1 1 1 1 1 1 
1 1 1 1 1 1 1 1 1 
1 1 1 1 1 1 1 1 1 
1 1 1 1 1 1 1 1 1 
1 1 1 1 1 1 1 1 1 
1 1 1 1 1 1 1 1 1 
1 1 1 1 1 1 1 1 1 
1 1 1 1 1 1 1 1 1 
1 1 1 1 1 1 1 1 1 
1 1 1 1 1 1 1 1 1 
1 1 1 1 1 1 1 1 1 
1 1 1 1 1 1 1 1 1 
1 1 1 1 1 1 1 1 1 
1 1 1 1 1 1 1 1 1 
1 1 1 1 1 1 1 1 1 
1 1 1 1 1 1 1 1 1 
1 1 1 1 1 1 1 1 1 
1 1 1 1 1 1 1 1 1 
1 1 1 1 1 1 1 1 1 
1 1 1 1 1 1 1 1 1 
1 1 1 1 1 1 1 1 1 
1 1 1 1 1 1 1 1 1 
1 1 1 1 1 1 1 1 1 
1 1 1 1 1 1 1 1 1 
1 1 1 1 1 1 1 1 1 
1 1 1 1 1 1 1 1 1 
1 1 1 1 1 1 1 1 1 
1 1 1 1 1 1 1 1 1 
1 1 1 1 1 1 1 1 1 
1 1 1 1 1 1 1 1 1 
1 1 1 1 1 1 1 1 1 
1 1 1 1 1 1 1 1 1 
1 1 1 1 1 1 1 1 1 
1 1 1 1 1 1 1 1 1 
1 1 1 1 1 1 1 1 1 
1 1 1 1 1 1 1 1 1 
1 1 1 1 1 1 1 1 1 
1 1 1 1 1 1 1 1 1 
1 1 1 1 1 1 1 1 1 
1 1 1 1 1 1 1 1 1 
1 1 1 1 1 1 1 1 1 
1 1 1 1 1 1 1 1 1 
1 1 1 1 1 1 1 1 1 
1 1 1 1 1 1 1 1 1 
1 1 1 1 1 1 1 1 1 
1 1 1 1 1 1 1 1 1 
1 1 1 1 1 1 1 1 1 
1 1 1 1 1 1 1 1 1 
1 1 1 1 1 1 1 1 1 
1 1 1 1 1 1 1 1 1 
1 1 1 1 1 1 1 1 1 
1 1 1 1 1 1 1 1 1 
1 1 1 1 1 1 1 1 1 
1 1 1 1 1 1 1 1 1 
1 1 1 1 1 1 1 1 1 
1 1 1 1 1 1 1 1 1 
1 1 1 1 1 1 1 1 1 
1 1 1 1 1 1 1 1 1 
1 1 1 1 1 1 1 1 1 
1 1 1 1 1 1 1 1 1 
1 1 1 1 1 1 1 1 1 
1 1 1 1 1 1 1 1 1 
1 1 1 1 1 1 1 1 1 
1 1 1 1 1 1 1 1 1 
1 1 1 1 1 1 1 1 1 
1 1 1 1 1 1 1 1 1 
1 1 1 1 1 1 1 1 1 
1 1 1 1 1 1 1 1 1 
1 1 1 1 1 1 1 1 1 
1 1 1 1 1 1 1 1 1 
1 1 1 1 1 1 1 1 1 
1 1 1 1 1 1 1 1 1 
1 1 1 1 1 1 1 1 1 
1 1 1 1 1 1 1 1 1 
1 1 1 1 1 1 1 1 1 
1 1 1 1 1 1 1 1 1 
1 1 1 1 1 1 1 1 1 
1 1 1 1 1 1 1 1 1 
1 1 1 1 1 1 1 1 1 
1 1 1 1 1 1 1 1 1 
1 1 1 1 1 1 1 1 1 
1 1 1 1 1 1 1 1 1 
1 1 1 1 1 1 1 1 1 
1 1 1 1 1 1 1 1 1 
1 1 1 1 1 1 1 1 1 
1 1 1 1 1 1 1 1 1 
1 1 1 1 1 1 1 1 1 
1 1 1 1 1 1 1 1 1 
1 1 1 1 1 1 1 1 1 
1 1 1 1 1 1 1 1 1 
1 1 1 1 1 1 1 1 1 
1 1 1 1 1 1 1 1 1 
1 1 1 1 1 1 1 1 1 
1 1 1 1 1 1 1 1 1 
1 1 1 1 1 1 1 1 1 
1 1 1 1 1 1 1 1 1 
1 1 1 1 1 1 1 1 1 
1 1 1 1 1 1 1 1 1 
1 1 1 1 1 1 1 1 1 
1 1 1 1 1 1 1 1 1 
1 1 1 1 1 1 1 1 1 
1 1 1 1 1 1 1 1 1 
1 1 1 1 1 1 1 1 1 
1 1 1 1 1 1 1 1 1 
1 1 1 1 1 1 1 1 1 
1 1 1 1 1 1 1 1 1 
1 1 1 1 1 1 1 1 1 
1 1 1 1 1 1 1 1 1 
1 1 1 1 1 1 1 1 1 
1 1 1 1 1 1 1 1 1 
1 1 1 1 1 1 1 1 1 
1 1 1 1 1 1 1 1 1 
1 1 1 1 1 1 1 1 1 
1 1 1 1 1 1 1 1 1 
1 1 1 1 1 1 1 1 1 
1 1 1 1 1 1 1 1 1 
1 1 1 1 1 1 1 1 1 
1 1 1 1 1 1 1 1 1 
1 1 1 1 1 1 1 1 1 
1 1 1 1 1 1 1 1 1 
1 1 1 1 1 1 1 1 1 
1 1 1 1 1 1 1 1 1 
1 1 1 1 1 1 1 1 1 
1 1 1 1 1 1 1 1 1 
1 1 1 1 1 1 1 1 1 
1 1 1 1 1 1 1 1 1 
1 1 1 1 1 1 1 1 1 
1 1 1 1 1 1 1 1 1 
1 1 1 1 1 1 1 1 1 
1 1 1 1 1 1 1 1 1 
1 1 1 1 1 1 1 1 1 
1 1 1 1 1 1 1 1 1 
1 1 1 1 1 1 1 1 1 
1 1 1 1 1 1 1 1 1 
1 1 1 1 1 1 1 1 1 
1 1 1 1 1 1 1 1 1 
1 1 1 1 1 1 1 1 1 
1 1 1 1 1 1 1 1 1 
1 1 1 1 1 1 1 1 1 
1 1 1 1 1 1 1 1 1 
1 1 1 1 1 1 1 1 1 
1 1 1 1 1 1 1 1 1 
1 1 1 1 1 1 1 1 1 
1 1 1 1 1 1 1 1 1 
1 1 1 1 1 1 1 1 1 
1 1 1 1 1 1 1 1 1 
1 1 1 1 1 1 1 1 1 
1 1 1 1 1 1 1 1 1 
1 1 1 1 1 1 1 1 1 
1 1 1 1 1 1 1 1 1 
1 1 1 1 1 1 1 1 1 
1 1 1 1 1 1 1 1 1 
1 1 1 1 1 1 1 1 1 
1 1 1 1 1 1 1 1 1 
1 1 1 1 1 1 1 1 1 
1 1 1 1 1 1 1 1 1 
1 1 1 1 1 1 1 1 1 
1 1 1 1 1 1 1 1 1 
1 1 1 1 1 1 1 1 1 
1 1 1 1 1 1 1 1 1 
1 1 1 1 1 1 1 1 1 
1 1 1 1 1 1 1 1 1 
1 1 1 1 1 1 1 1 1 
1 1 1 1 1 1 1 1 1 
1 1 1 1 1 1 1 1 1 
1 1 1 1 1 1 1 1 1 
1 1 1 1 1 1 1 1 1 
1 1 1 1 1 1 1 1 1 
1 1 1 1 1 1 1 1 1 
1 1 1 1 1 1 1 1 1 
1 1 1 1 1 1 1 1 1 
1 1 1 1 1 1 1 1 1 
1 1 1 1 1 1 1 1 1 
1 1 1 1 1 1 1 1 1 
1 1 1 1 1 1 1 1 1 
1 1 1 1 1 1 1 1 1 
1 1 1 1 1 1 1 1 1 
1 1 1 1 1 1 1 1 1 
1 1 1 1 1 1 1 1 1 
1 1 1 1 1 1 1 1 1 
1 1 1 1 1 1 1 1 1 
1 1 1 1 1 1 1 1 1 
1 1 1 1 1 1 1 1 1 
1 1 1 1 1 1 1 1 1 
1 1 1 1 1 1 1 1 1 
1 1 1 1 1 1 1 1 1 
1 1 1 1 1 1 1 1 1 
1 1 1 1 1 1 1 1 1 
1 1 1 1 1 1 1 1 1 
1 1 1 1 1 1 1 1 1 
1 1 1 1 1 1 1 1 1 
1 1 1 1 1 1 1 1 1 
1 1 1 1 1 1 1 1 1 
1 1 1 1 1 1 1 1 1 
1 1 1 1 1 1 1 1 1 
1 1 1 1 1 1 1 1 1 
1 1 1 1 1 1 1 1 1 
1 1 1 1 1 1 1 1 1 
1 1 1 1 1 1 1 1 1 
1 1 1 1 1 1 1 1 1 
1 1 1 1 1 1 1 1 1 
1 1 1 1 1 1 1 1 1 
1 1 1 1 1 1 1 1 1 
1 1 1 1 1 1 1 1 1 
1 1 1 1 1 1 1 1 1 
1 1 1 1 1 1 1 1 1 
1 1 1 1 1 1 1 1 1 
1 1 1 1 1 1 1 1 1 
1 1 1 1 1 1 1 1 1 
1 1 1 1 1 1 1 1 1 
1 1 1 1 1 1 1 1 1 
1 1 1 1 1 1 1 1 1 
1 1 1 1 1 1 1 1 1 
1 1 1 1 1 1 1 1 1 
1 1 1 1 1 1 1 1 1 
1 1 1 1 1 1 1 1 1 
1 1 1 1 1 1 1 1 1 
1 1 1 1 1 1 1 1 1 
1 1 1 1 1 1 1 1 1 
1 1 1 1 1 1 1 1 1 
1 1 1 1 1 1 1 1 1 
1 1 1 1 1 1 1 1 1 
1 1 1 1 1 1 1 1 1 
1 1 1 1 1 1 1 1 1 
1 1 1 1 1 1 1 1 1 
1 1 1 1 1 1 1 1 1 
1 1 1 1 1 1 1 1 1 
1 1 1 1 1 1 1 1 1 
1 1 1 1 1 1 1 1 1 
1 1 1 1 1 1 1 1 1 
1 1 1 1 1 1 1 1 1 
1 1 1 1 1 1 1 1 1 
1 1 1 1 1 1 1 1 1 
1 1 1 1 1 1 1 1 1 
1 1 1 1 1 1 1 1 1 
1 1 1 1 1 1 1 1 1 
1 1 1 1 1 1 1 1 1 
1 1 1 1 1 1 1 1 1 
1 1 1 1 1 1 1 1 1 
1 1 1 1 1 1 1 1 1 
1 1 1 1 1 1 1 1 1 
1 1 1 1 1 1 1 1 1 
1 1 1 1 1 1 1 1 1 
1 1 1 1 1 1 1 1 1 
1 1 1 1 1 1 1 1 1 
1 1 1 1 1 1 1 1 1 
1 1 1 1 1 1 1 1 1 
1 1 1 1 1 1 1 1 1 
1 1 1 1 1 1 1 1 1 
1 1 1 1 1 1 1 1 1 
1 1 1 1 1 1 1 1 1 
1 1 1 1 1 1 1 1 1 
1 1 1 1 1 1 1 1 1 
1 1 1 1 1 1 1 1 1 
1 1 1 1 1 1 1 1 1 
1 1 1 1 1 1 1 1 1 
1 1 1 1 1 1 1 1 1 
1 1 1 1 1 1 1 1 1 
1 1 1 1 1 1 1 1 1 
1 1 1 1 1 1 1 1 1 
1 1 1 1 1 1 1 1 1 
1 1 1 1 1 1 1 1 1 
1 1 1 1 1 1 1 1 1 
1 1 1 1 1 1 1 1 1 
1 1 1 1 1 1 1 1 1 
1 1 1 1 1 1 1 1 1 
1 1 1 1 1 1 1 1 1 
1 1 1 1 1 1 1 1 1 
1 1 1 1 1 1 1 1 1 
1 1 1 1 1 1 1 1 1 
1 1 1 1 1 1 1 1 1 
1 1 1 1 1 1 1 1 1 
1 1 1 1 1 1 1 1 1 
1 1 1 1 1 1 1 1 1 
1 1 1 1 1 1 1 1 1 
1 1 1 1 1 1 1 1 1 
1 1 1 1 1 1 1 1 1 
1 1 1 1 1 1 1 1 1 
1 1 1 1 1 1 1 1 1 
1 1 1 1 1 1 1 1 1 
1 1 1 1 1 1 1 1 1 
1 1 1 1 1 1 1 1 1 
1 1 1 1 1 1 1 1 1 
1 1 1 1 1 1 1 1 1 
1 1 1 1 1 1 1 1 1 
1 1 1 1 1 1 1 1 1 
1 1 1 1 1 1 1 1 1 
1 1 1 1 1 1 1 1 1 
1 1 1 1 1 1 1 1 1 
1 1 1 1 1 1 1 1 1 
1 1 1 1 1 1 1 1 1 
1 1 1 1 1 1 1 1 1 
1 1 1 1 1 1 1 1 1 
1 1 1 1 1 1 1 1 1 
1 1 1 1 1 1 1 1 1 
1 1 1 1 1 1 1 1 1 
1 1 1 1 1 1 1 1 1 
1 1 1 1 1 1 1 1 1 
1 1 1 1 1 1 1 1 1 
1 1 1 1 1 1 1 1 1 
1 1 1 1 1 1 1 1 1 
1 1 1 1 1 1 1 1 1 
1 1 1 1 1 1 1 1 1 
1 1 1 1 1 1 1 1 1 
1 1 1 1 1 1 1 1 1 
1 1 1 1 1 1 1 1 1 
1 1 1 1 1 1 1 1 1 
1 1 1 1 1 1 1 1 1 
1 1 1 1 1 1 1 1 1 
1 1 1 1 1 1 1 1 1 
1 1 1 1 1 1 1 1 1 
1 1 1 1 1 1 1 1 1 
1 1 1 1 1 1 1 1 1 
1 1 1 1 1 1 1 1 1 
1 1 1 1 1 1 1 1 1 
1 1 1 1 1 1 1 1 1 
1 1 1 1 1 1 1 1 1 
1 1 1 1 1 1 1 1 1 
1 1 1 1 1 1 1 1 1 
1 1 1 1 1 1 1 1 1 
1 1 1 1 1 1 1 1 1 
1 1 1 1 1 1 1 1 1 
1 1 1 1 1 1 1 1 1 
1 1 1 1 1 1 1 1 1 
1 1 1 1 1 1 1 1 1 
1 1 1 1 1 1 1 1 1 
1 1 1 1 1 1 1 1 1 
1 1 1 1 1 1 1 1 1 
1 1 1 1 1 1 1 1 1 
1 1 1 1 1 1 1 1 1 
1 1 1 1 1 1 1 1 1 
1 1 1 1 1 1 1 1 1 
1 1 1 1 1 1 1 1 1 
1 1 1 1 1 1 1 1 1 
1 1 1 1 1 1 1 1 1 
1 1 1 1 1 1 1 1 1 
1 1 1 1 1 1 1 1 1 
1 1 1 1 1 1 1 1 1 
1 1 1 1 1 1 1 1 1 
1 1 1 1 1 1 1 1 1 
1 1 1 1 1 1 1 1 1 
1 1 1 1 1 1 1 1 1 
1 1 1 1 1 1 1 1 1 
1 1 1 1 1 1 1 1 1 
1 1 1 1 1 1 1 1 1 
1 1 1 1 1 1 1 1 1 
1 1 1 1 1 1 1 1 1 
1 1 1 1 1 1 1 1 1 
1 1 1 1 1 1 1 1 1 
1 1 1 1 1 1 1 1 1 
1 1 1 1 1 1 1 1 1 
1 1 1 1 1 1 1 1 1 
1 1 1 1 1 1 1 1 1 
1 1 1 1 1 1 1 1 1 
1 1 1 1 1 1 1 1 1 
1 1 1 1 1 1 1 1 1 
1 1 1 1 1 1 1 1 1 
1 1 1 1 1 1 1 1 1 
1 1 1 1 1 1 1 1 1 
1 1 1 1 1 1 1 1 1 
1 1 1 1 1 1 1 1 1 
1 1 1 1 1 1 1 1 1 
1 1 1 1 1 1 1 1 1 
1 1 1 1 1 1 1 1 1 
1 1 1 1 1 1 1 1 1 
1 1 1 1 1 1 1 1 1 
1 1 1 1 1 1 1 1 1 
1 1 1 1 1 1 1 1 1 
1 1 1 1 1 1 1 1 1 
1 1 1 1 1 1 1 1 1 
1 1 1 1 1 1 1 1 1 
1 1 1 1 1 1 1 1 1 
1 1 1 1 1 1 1 1 1 
1 1 1 1 1 1 1 1 1 
1 1 1 1 1 1 1 1 1 
1 1 1 1 1 1 1 1 1 
1 1 1 1 1 1 1 1 1 
1 1 1 1 1 1 1 1 1 
1 1 1 1 1 1 1 1 1 
1 1 1 1 1 1 1 1 1 
1 1 1 1 1 1 1 1 1 
1 1 1 1 1 1 1 1 1 
1 1 1 1 1 1 1 1 1 
1 1 1 1 1 1 1 1 1 
1 1 1 1 1 1 1 1 1 
1 1 1 1 1 1 1 1 1 
1 1 1 1 1 1 1 1 1 
1 1 1 1 1 1 1 1 1 
1 1 1 1 1 1 1 1 1 
1 1 1 1 1 1 1 1 1 
1 1 1 1 1 1 1 1 1 
1 1 1 1 1 1 1 1 1 
1 1 1 1 1 1 1 1 1 
1 1 1 1 1 1 1 1 1 
1 1 1 1 1 1 1 1 1 
1 1 1 1 1 1 1 1 1 
1 1 1 1 1 1 1 1 1 
1 1 1 1 1 1 1 1 1 
1 1 1 1 1 1 1 1 1 
1 1 1 1 1 1 1 1 1 
1 1 1 1 1 1 1 1 1 
1 1 1 1 1 1 1 1 1 
1 1 1 1 1 1 1 1 1 

NORMALS normals float
-0.0144897 -0.0144897 -0.99979 -0.0144897 -0.99979 -0.0144897 -0.70707 -0.0102474 -0.70707 
0 -0.0144912 -0.999895 0 -0.999895 -0.0144912 0 -0.0144912 -0.999895 
0 -0.999895 -0.0144912 0 -0.0144912 -0.999895 0 -0.999895 -0.0144912 
0 -0.0144912 -0.999895 0 -0.999895 -0.0144912 0 -0.0144912 -0.999895 
0 -0.999895 -0.0144912 0 -0.0144912 -0.999895 0 -0.999895 -0.0144912 
0 -0.0144912 -0.999895 0 -0.999895 -0.0144912 0 -0.0144912 -0.999895 
0 -0.999895 -0.0144912 0 -0.0144912 -0.999895 0 -0.999895 -0.0144912 
0 -0.0144912 -0.999895 0 -0.999895 -0.0144912 0.0144897 -0.0144897 -0.99979 
0.0144897 -0.99979 -0.0144897 0.99979 -0.0144897 -0.0144897 -0.0144912 0 -0.999895 
-0.707107 0 -0.707107 0 0 -1 0 0 -1 
0 0 -1 0 0 -1 0 0 -1 
0 0 -1 0 0 -1 0 0 -1 
0 0 -1 0 0 -1 0.0144912 0 -0.999895 
0.999895 0 -0.0144912 -0.0144912 0 -0.999895 -0.707107 0 -0.707107 
0 0 -1 0 0 -1 0 0 -1 
0 0 -1 0 0 -1 0 0 -1 
0 0 -1 0 0 -1 0 0 -1 
0 0 -1 0.0144912 0 -0.999895 0.999895 0 -0.0144912 
-0.0144912 0 -0.999895 -0.707107 0 -0.707107 0 0 -1 
0 0 -1 0 0 -1 0 0 -1 
0 0 -1 0 0 -1 0 0 -1 
0 0 -1 0 0 -1 0 0 -1 
0.0144912 0 -0.999895 0.999895 0 -0.0144912 -0.0144912 0 -0.999895 
-0.707107 0 -0.707107 0 0 -1 0 0 -1 
0 0 -1 0 0 -1 0 0 -1 
0 0 -1 0 0 -1 0 0 -1 
0 0 -1 0 0 -1 0.0144912 0 -0.999895 
0.999895 0 -0.0144912 -0.0144897 0.0144897 -0.99979 -0.99979 0.0144897 -0.0144897 
0 0.0144912 -0.999895 0 0 -1 0 0 -1 
0 0 -1 0 0 -1 0 0 -1 
0 0 -1 0 0 -1 0 0 -1 
0 0 -1 0.0144912 0 -0.999895 0.999895 0 -0.0144912 
-0.0144897 0.99979 -0.0144897 -0.571731 0.580139 -0.580139 -0.580139 0.571731 -0.580139 
-0.0144912 0 -0.999895 0 0 -1 0 0 -1 
0 0 -1 0 0 -1 0 0 -1 
0 0 -1 0 0 -1 0 0 -1 
0.0144912 0 -0.999895 0.999895 0 -0.0144912 -0.0144912 0 -0.999895 
-0.707107 0 -0.707107 0 0 -1 0 0 -1 
0 0 -1 0 0 -1 0 0 -1 
0 0 -1 0 0 -1 0 0 -1 
0.0144912 0 -0.999895 0.999895 0 -0.0144912 -0.0144912 0 -0.999895 
-0.707107 0 -0.707107 0 0 -1 0 0 -1 
0 0 -1 0 0 -1 0 0 -1 
0 0 -1 0 0 -1 0 0 -1 
0.0144912 0 -0.999895 0.999895 0 -0.0144912 -0.0144912 0 -0.999895 
-0.707107 0 -0.707107 0 0 -1 0 0 -1 
0 0 -1 0 0 -1 0 0 -1 
0 0 -1 0 0 -1 0 0 -1 
0.0144912 0 -0.999895 0.999895 0 -0.0144912 -0.0144912 0 -0.999895 
-0.707107 0 -0.707107 0 0 -1 0 0 -1 
0 0 -1 0 0 -1 0 0 -1 
0 0 -1 0 0 -1 0 0 -1 
0.0144897 0.0144897 -0.99979 0.99979 0.0144897 -0.0144897 -0.0144897 0.0144897 -0.99979 
-0.99979 0.0144897 -0.0144897 0 0.0144912 -0.999895 0 0.0144912 -0.999895 
0 0.0144912 -0.999895 0 0.0144912 -0.999895 0 0.0144912 -0.999895 
0 0.0144912 -0.999895 0 0.0144912 -0.999895 0.0144897 0.0144897 -0.99979 
0.57735 0.57735 -0.57735 0.57735 0.57735 -0.57735 -0.0144897 0.99979 -0.0144897 
0 0.999895 -0.0144912 0 0.999895 -0.0144912 0 0.999895 -0.0144912 
0 0.999895 -0.0144912 0 0.999895 -0.0144912 0 0.999895 -0.0144912 
0 0.999895 -0.0144912 0.0144897 0.99979 -0.0144897 -0.712211 -0.0103219 -0.701889 
-0.0144912 -0.999895 0 -0.999895 -0.0144912 0 0 -1 0 
0 -1 0 0 -1 0 0 -1 0 
0 -1 0 0 -1 0 0 -1 0 
0 -1 0 0 -1 0 0 -1 0 
0 -1 0 0.0144912 -0.999895 0 0.999895 -0.0144912 0 
-0.712249 0 -0.701927 -1 0 0 1 0 0 
-0.712249 0 -0.701927 -1 0 0 1 0 0 
-0.712249 0 -0.701927 -1 0 0 1 0 0 
-0.712211 0.0103219 -0.701889 -0.999895 0.0144912 0 0.712249 0 -0.701927 
-0.707107 0.707107 0 -0.707107 0.707107 0 0.712249 0 -0.701927 
-0.580139 0.580139 -0.571731 -0.580139 0.571731 -0.580139 -0.580139 0.571731 -0.580139 
0.712249 0 -0.701927 -0.707107 0 -0.707107 -0.707107 0 -0.707107 
0.712249 0 -0.701927 -0.712249 0 -0.701927 -1 0 0 
0.712249 0 -0.701927 -0.712249 0 -0.701927 -1 0 0 
0.712249 0 -0.701927 -0.712211 0.0103219 -0.701889 -0.999895 0.0144912 0 
0.712249 0 -0.701927 -0.707107 0.707107 0 -0.707107 0.707107 0 
0.57735 0.57735 -0.57735 0.70707 0.0102474 -0.70707 -0.0144912 0.999895 0 
0 1 0 0 1 0 0 1 0 
0 1 0 0 1 0 0 1 0 
0 1 0 0 1 0 0.0144897 0.99979 -0.0144897 
-0.712211 -0.0103219 0.701889 -0.712211 -0.0103219 0.701889 -0.0144912 -0.999895 0 
0 -1 0 0 -1 0 0 -0.712249 -0.701927 
0 -0.712249 -0.701927 0 -0.712249 -0.701927 0 -0.712249 -0.701927 
0 -0.712249 -0.701927 0 -0.712249 -0.701927 0 -0.712249 -0.701927 
0 -0.712249 -0.701927 0.0103219 -0.712211 -0.701889 0.999895 -0.0144912 0 
-0.712249 0 0.701927 -0.712249 0 0.701927 1 0 0 
-0.712249 0 0.701927 -0.712249 0 0.701927 1 0 0 
-0.712249 0 0.701927 -0.712249 0 0.701927 0.582969 -0.57452 -0.57452 
-0.712211 0.0103219 0.701889 -0.712249 0 0.701927 0.571731 -0.580139 -0.580139 
0.701889 -0.0103219 -0.712211 0.0144897 -0.0144897 -0.99979 0.0102474 -0.70707 -0.70707 
0.99979 -0.0144897 -0.0144897 -1 0 0 0.701927 0 -0.712249 
0.0144912 0 -0.999895 0.999895 0 -0.0144912 -0.580139 0.571731 -0.580139 
-0.999895 0 -0.0144912 0.701927 0 -0.712249 0.0144912 0 -0.999895 
0.999895 0 -0.0144912 -0.70707 0.0102474 -0.70707 -0.99979 0.0144897 -0.0144897 
0.701927 0 -0.712249 0.0144912 0 -0.999895 0.999895 0 -0.0144912 
-0.0144897 0.99979 -0.0144897 -0.57452 0.582969 0.57452 -0.582969 0.57452 0.57452 
-0.582969 0.57452 0.57452 0.701927 0 -0.712249 0.0144912 0 -0.999895 
0.999895 0 -0.0144912 -0.712249 0 0.701927 -0.712249 0 0.701927 
0.701927 0 -0.712249 0.0144912 0 -0.999895 0.999895 0 -0.0144912 
-0.712211 0.0103219 0.701889 -0.712249 0 0.701927 0.701927 0 -0.712249 
0.0144912 0 -0.999895 0.999895 0 -0.0144912 -0.999895 0.0144912 0 
0.701927 0 -0.712249 0.0144912 0 -0.999895 0.999895 0 -0.0144912 
-0.0144912 0.999895 0 0 1 0 0 1 0 
0 1 0 0 1 0 0 1 0 
0 1 0 0 1 0 0 1 0 
-0.57452 0.582969 -0.57452 -0.0144912 0 -0.999895 -0.580139 0.571731 -0.580139 
0.0144897 0.0144897 -0.99979 0.99979 0.0144897 -0.0144897 0 0.0144912 -0.999895 
-0.999784 0.0147027 -0.0147027 0.701889 0.712211 -0.0103219 0.70707 0.70707 -0.0102474 
0 0.999895 -0.0144912 -0.0102474 -0.70707 -0.70707 -0.0144897 -0.99979 -0.0144897 
-0.70707 -0.70707 -0.0102474 0 -0.707107 -0.707107 0 -0.707107 -0.707107 
0 -0.707107 -0.707107 0 -0.707107 -0.707107 0 -0.707107 -0.707107 
0 -0.707107 -0.707107 0 -0.707107 -0.707107 0 -0.707107 -0.707107 
0 -0.707107 -0.707107 0 -0.707107 -0.707107 0 -0.707107 -0.707107 
0 -0.707107 -0.707107 0 -0.707107 -0.707107 0 -0.707107 -0.707107 
0 -0.707107 -0.707107 0 -0.707107 -0.707107 0 0 -1 
0 -0.701927 -0.712249 0.0144912 0 -0.999895 0.0103219 -0.701889 -0.712211 
0.999895 0 -0.0144912 -0.0144912 -0.999895 0 -0.999895 -0.0144912 0 
0 -1 0 -0.701927 -0.712249 0 0.57452 0.57452 -0.582969 
0.582969 0.57452 -0.57452 0.0103219 0.701889 -0.712211 -1 0 0 
0.712249 0 -0.701927 -1 0 0 0.582969 -0.57452 -0.57452 
-1 0 0 0.571731 -0.580139 -0.580139 0.571731 -0.580139 -0.580139 
0.0102474 -0.70707 -0.70707 0.0102474 -0.70707 -0.70707 0.99979 -0.0144897 -0.0144897 
-1 0 0 1 0 0 -1 0 0 
1 0 0 -1 0 0 1 0 0 
-0.999895 0.0144912 0 1 0 0 -0.0144912 0.999895 0 
-0.701927 0.712249 0 -0.712249 0.701927 0 1 0 0 
-1 0 0 1 0 0 -1 0 0 
1 0 0 -0.999895 0.0144912 0 1 0 0 
-0.0103219 0.712211 -0.701889 0 0.712249 -0.701927 0 0.712249 -0.701927 
0 0.712249 -0.701927 0 0.712249 -0.701927 0 0.712249 -0.701927 
0 0.712249 -0.701927 0 0.712249 -0.701927 -0.57452 0.582969 -0.57452 
-0.57735 0.57735 -0.57735 -0.57735 0.57735 -0.57735 0.999895 0.0144912 0 
-0.57735 0.57735 -0.57735 -0.57452 0.582969 -0.57452 0.701927 0.712249 0 
0.707107 0.707107 0 0 1 0 -0.0144897 -0.0144897 -0.99979 
-0.0144897 -0.99979 -0.0144897 -0.70707 -0.70707 -0.0102474 0.0147027 -0.0147027 -0.999784 
0.0144912 -0.999895 0 0.999895 -0.0144912 0 -0.0147027 -0.0147027 -0.999784 
-0.707107 -0.707107 0 -0.707107 -0.707107 0 0 0 -1 
0.0144912 0 -0.999895 0.999895 0 -0.0144912 -0.0102474 -0.70707 -0.70707 
-0.0144897 -0.99979 -0.0144897 -0.70707 -0.70707 -0.0102474 0 -0.707107 -0.707107 
0 -0.999895 -0.0144912 0 -0.707107 -0.707107 0 -0.999895 -0.0144912 
0 -0.707107 -0.707107 0 -0.999895 -0.0144912 0 -0.707107 -0.707107 
0 -0.999895 -0.0144912 0 -0.707107 -0.707107 0 -0.999895 -0.0144912 
0 -0.707107 -0.707107 -0.701889 -0.712211 -0.0103219 0 -0.701927 -0.712249 
0 -0.701927 -0.712249 0.0103981 -0.707069 -0.707069 1 0 0 
-0.707107 -0.707107 0 -0.580139 -0.580139 -0.571731 0.999895 0 0.0144912 
-0.0103219 -0.712211 -0.701889 -0.999895 -0.0144912 0 0 -0.712249 -0.701927 
-0.57452 -0.582969 -0.57452 0.57452 0.57452 -0.582969 0.0103219 0.701889 -0.712211 
0.999895 0 -0.0144912 -1 0 0 0.701927 0 -0.712249 
0.0144912 0 -0.999895 0.999895 0 -0.0144912 -1 0 0 
0.57452 -0.57452 -0.582969 0.0103219 -0.701889 -0.712211 0.999895 0 -0.0144912 
-1 0 0 1 0 0 -1 0 0 
1 0 0 -1 0 0 1 0 0 
-1 0 0 1 0 0 -0.99979 0.0144897 0.0144897 
1 0 0 -0.0144897 0.99979 0.0144897 -0.701889 0.712211 0.0103219 
-0.712249 0.701927 0 1 0 0 -1 0 0 
1 0 0 -1 0 0 1 0 0 
-1 0 0 1 0 0 -0.0103219 0.701889 -0.712211 
-0.999895 0 -0.0144912 0 0.701927 -0.712249 0 0.701927 -0.712249 
0 0.701927 -0.712249 0 0.701927 -0.712249 0 0.701927 -0.712249 
0 0.701927 -0.712249 0 0.701927 -0.712249 -0.57452 0.57452 -0.582969 
0.999895 0.0144912 0 -0.0147027 0.0147027 -0.999784 -0.999895 0.0144912 0 
0 0.0144912 -0.999895 0 0 -1 0 0 -1 
0 0 -1 0 0 -1 0 0 -1 
0 0 -1 0 0 -1 -0.57452 0.57452 -0.582969 
0.707107 0.707107 0 0.707107 0.707107 0 -0.0144912 0.999895 0 
-0.701889 0.712211 -0.0103219 -0.712211 0.701889 -0.0103219 -0.0144912 0 -0.999895 
0 0 -1 0 0 -1 0 0 -1 
0 0 -1 0 0 -1 0 0 -1 
0.0144897 0.0144897 -0.99979 0.707107 0.707107 0 0.70707 0.70707 -0.0102474 
-0.0144897 0.0144897 -0.99979 -0.99979 0.0144897 -0.0144897 0 0.0144912 -0.999895 
0 0.0144912 -0.999895 0 0.0144912 -0.999895 0 0.0144912 -0.999895 
0 0.0144912 -0.999895 0.0144897 0.0144897 -0.99979 0.70707 0.70707 -0.0102474 
0.70707 0.70707 -0.0102474 -0.0144897 0.99979 -0.0144897 0 0.999895 -0.0144912 
0 0.999895 -0.0144912 0 0.999895 -0.0144912 0 0.999895 -0.0144912 
0 0.999895 -0.0144912 0.0144897 0.99979 -0.0144897 0 -0.999895 0.0144912 
-0.999784 -0.0147027 0.0147027 0.580139 -0.580139 0.571731 0.571731 -0.580139 0.580139 
-0.580139 -0.580139 0.571731 -0.580139 -0.571731 0.580139 0.580139 -0.571731 0.580139 
0.999895 0 0.0144912 -0.0144897 -0.99979 0.0144897 -0.70707 -0.70707 0.0102474 
0 -0.999895 0.0144912 0 -0.999895 0.0144912 0 -0.999895 0.0144912 
0 -0.999895 0.0144912 0 -0.999895 0.0144912 0 -0.999895 0.0144912 
-0.571731 -0.580139 0.580139 0.582969 0.57452 0.57452 0.580139 0.571731 0.580139 
0.580139 0.571731 0.580139 -0.0103219 -0.712211 -0.701889 -0.0144912 -0.999895 0 
-0.999895 -0.0144912 0 0 -0.712249 -0.701927 0 -1 0 
-0.57452 -0.582969 -0.57452 0 -1 0 -0.701889 -0.712211 0.0103219 