# vtk DataFile Version 3.0
vtk output
ASCII
DATASET POLYDATA
POINTS 6638 float
33 130 86 34 130 86 33 131 86 
34 131 86 35 132 86 36 132 86 
37 132 86 38 132 86 39 132 86 
40 132 86 41 132 86 42 132 86 
35 133 86 36 133 86 37 133 86 
38 133 86 39 133 86 40 133 86 
41 133 86 32 129 87 33 129 87 
34 129 87 32 130 87 34 130 87 
33 131 87 35 131 87 36 131 87 
37 131 87 38 131 87 39 131 87 
40 131 87 34 131 87 35 132 87 
41 132 87 42 132 87 35 133 87 
41 133 87 36 133 87 37 133 87 
38 133 87 39 133 87 40 133 87 
37 124 88 38 124 88 36 125 88 
37 125 88 38 125 88 35 126 88 
36 126 88 37 126 88 38 126 88 
34 127 88 35 127 88 36 127 88 
37 127 88 38 127 88 33 128 88 
34 128 88 35 128 88 36 128 88 
37 128 88 38 128 88 39 128 88 
40 128 88 32 129 88 35 129 88 
36 129 88 37 129 88 38 129 88 
39 129 88 40 129 88 33 130 88 
35 130 88 36 130 88 37 130 88 
38 130 88 39 130 88 40 130 88 
33 131 88 40 131 88 34 131 88 
35 132 88 41 132 88 42 132 88 
35 133 88 41 133 88 36 133 88 
37 133 88 38 133 88 39 133 88 
40 133 88 37 124 89 38 124 89 
36 125 89 38 125 89 35 126 89 
38 126 89 34 127 89 39 127 89 
40 127 89 33 128 89 40 128 89 
32 129 89 40 129 89 32 130 89 
40 130 89 33 131 89 41 131 89 
42 131 89 34 131 89 35 132 89 
41 132 89 36 132 89 37 132 89 
38 132 89 39 132 89 40 132 89 
37 124 90 38 124 90 39 124 90 
40 124 90 41 124 90 42 124 90 
36 125 90 39 125 90 40 125 90 
41 125 90 42 125 90 35 126 90 
39 126 90 40 126 90 41 126 90 
42 126 90 34 127 90 41 127 90 
42 127 90 33 128 90 41 128 90 
42 128 90 43 128 90 44 128 90 
32 129 90 41 129 90 42 129 90 
43 129 90 44 129 90 50 129 90 
31 130 90 41 130 90 42 130 90 
43 130 90 44 130 90 45 130 90 
46 130 90 47 130 90 48 130 90 
49 130 90 50 130 90 51 130 90 
52 130 90 31 131 90 32 131 90 
43 131 90 44 131 90 45 131 90 
46 131 90 47 131 90 48 131 90 
49 131 90 50 131 90 51 131 90 
33 131 90 34 131 90 35 131 90 
36 131 90 37 131 90 38 131 90 
39 131 90 40 131 90 41 131 90 
42 131 90 42 120 91 42 121 91 
42 122 91 38 123 91 39 123 91 
40 123 91 41 123 91 42 123 91 
36 124 91 37 124 91 42 124 91 
35 125 91 42 125 91 34 126 91 
42 126 91 33 127 91 43 127 91 
44 127 91 32 128 91 44 128 91 
30 129 91 31 129 91 45 129 91 
46 129 91 47 129 91 48 129 91 
49 129 91 50 129 91 51 129 91 
30 130 91 52 130 91 28 131 91 
29 131 91 30 131 91 51 131 91 
28 132 91 31 131 91 32 131 91 
33 131 91 34 131 91 35 131 91 
36 131 91 37 131 91 38 131 91 
39 131 91 40 131 91 41 131 91 
42 131 91 43 131 91 44 131 91 
45 131 91 46 131 91 47 131 91 
48 131 91 49 131 91 50 131 91 
28 133 91 28 134 91 41 120 92 
42 120 92 43 120 92 44 120 92 
40 121 92 41 121 92 43 121 92 
44 121 92 39 122 92 40 122 92 
41 122 92 43 122 92 44 122 92 
38 123 92 43 123 92 44 123 92 
35 124 92 36 124 92 37 124 92 
43 124 92 44 124 92 45 124 92 
46 124 92 34 125 92 43 125 92 
44 125 92 45 125 92 46 125 92 
33 126 92 43 126 92 44 126 92 
45 126 92 46 126 92 47 126 92 
48 126 92 49 126 92 50 126 92 
32 127 92 45 127 92 46 127 92 
47 127 92 48 127 92 49 127 92 
50 127 92 31 128 92 45 128 92 
46 128 92 47 128 92 48 128 92 
49 128 92 50 128 92 30 129 92 
50 129 92 27 130 92 28 130 92 
29 130 92 51 130 92 52 130 92 
27 131 92 51 131 92 27 132 92 
29 132 92 30 132 92 31 132 92 
32 132 92 33 132 92 34 132 92 
35 132 92 36 132 92 37 132 92 
38 132 92 39 132 92 40 132 92 
41 132 92 42 132 92 43 132 92 
44 132 92 45 131 92 46 131 92 
47 131 92 48 131 92 49 131 92 
50 131 92 27 133 92 29 133 92 
30 133 92 31 133 92 32 133 92 
33 133 92 34 133 92 35 133 92 
36 133 92 37 133 92 38 133 92 
39 133 92 40 133 92 41 133 92 
42 133 92 43 133 92 27 134 92 
29 134 92 30 134 92 27 135 92 
28 135 92 29 135 92 41 119 93 
40 120 93 42 120 93 43 120 93 
39 121 93 43 121 93 38 122 93 
44 122 93 35 123 93 36 123 93 
37 123 93 44 123 93 34 124 93 
45 124 93 46 124 93 33 125 93 
46 125 93 32 126 93 47 126 93 
48 126 93 49 126 93 31 127 93 
49 127 93 31 128 93 49 128 93 
30 129 93 49 129 93 27 130 93 
28 130 93 29 130 93 50 130 93 
51 130 93 27 131 93 47 131 93 
48 130 93 49 130 93 27 132 93 
44 132 93 45 131 93 46 131 93 
27 133 93 43 133 93 27 134 93 
30 134 93 31 133 93 32 133 93 
33 133 93 34 133 93 35 133 93 
36 133 93 37 133 93 38 133 93 
39 133 93 40 133 93 41 133 93 
42 133 93 27 135 93 29 135 93 
28 135 93 40 119 94 39 120 94 
41 120 94 42 120 94 38 121 94 
42 121 94 35 122 94 36 122 94 
37 122 94 43 122 94 44 122 94 
34 123 94 44 123 94 33 124 94 
45 124 94 46 124 94 32 125 94 
46 125 94 31 126 94 47 126 94 
48 126 94 31 127 94 48 127 94 
31 128 94 48 128 94 30 129 94 
48 129 94 27 130 94 28 130 94 
29 130 94 48 130 94 27 131 94 
47 131 94 27 132 94 44 132 94 
45 131 94 46 131 94 27 133 94 
43 133 94 27 134 94 31 134 94 
32 134 94 33 133 94 34 133 94 
35 133 94 36 133 94 37 133 94 
38 133 94 39 133 94 40 133 94 
41 133 94 42 133 94 27 135 94 
30 135 94 31 135 94 28 135 94 
29 135 94 40 119 95 41 119 95 
39 120 95 42 120 95 38 121 95 
43 121 95 35 122 95 36 122 95 
37 122 95 44 122 95 34 123 95 
45 123 95 32 124 95 33 124 95 
46 124 95 31 125 95 47 125 95 
30 126 95 48 126 95 30 127 95 
47 127 95 30 128 95 47 128 95 
27 129 95 28 129 95 29 129 95 
47 129 95 27 130 95 47 130 95 
27 131 95 44 131 94 43 131 95 
44 130 95 45 130 95 46 130 95 
27 132 95 43 132 95 27 133 95 
35 133 95 36 132 95 37 132 95 
38 132 95 39 132 95 40 132 95 
41 132 95 42 132 95 27 134 95 
32 134 95 33 133 95 34 133 95 
28 134 95 29 135 95 31 135 95 
30 135 95 41 118 96 42 118 96 
40 119 96 42 119 96 39 120 96 
43 120 96 44 120 96 38 121 96 
44 121 96 35 122 96 36 122 96 
37 122 96 45 122 96 46 122 96 
34 123 96 46 123 96 31 124 96 
32 124 96 33 124 96 47 124 96 
48 124 96 30 125 96 48 125 96 
29 126 96 48 126 96 28 127 96 
29 127 96 47 127 96 27 128 96 
28 128 96 29 128 96 45 128 95 
44 128 96 45 127 96 46 127 96 
46 128 95 26 129 96 44 129 95 
43 129 96 45 129 95 46 129 95 
27 130 96 41 130 95 40 130 96 
41 129 96 42 129 96 42 130 95 
43 130 95 27 131 96 40 131 95 
39 131 96 41 131 95 42 131 95 
27 132 96 36 132 96 37 131 96 
38 131 96 27 133 96 35 133 96 
28 133 96 29 134 96 32 134 96 
33 133 96 34 133 96 29 135 96 
31 135 96 30 135 96 41 117 97 
41 118 97 42 118 97 40 119 97 
43 119 97 39 120 97 44 120 97 
38 121 97 45 121 97 35 122 97 
36 122 97 37 122 97 46 122 97 
34 123 97 47 123 97 48 123 97 
31 124 97 32 124 97 33 124 97 
48 124 97 30 125 97 49 125 97 
50 125 97 51 125 97 29 126 97 
48 126 97 28 127 97 48 127 97 
26 128 97 27 128 97 44 128 97 
45 127 97 46 127 97 47 127 97 
26 129 97 43 129 97 27 130 97 
40 130 97 41 129 97 42 129 97 
27 131 97 40 131 97 27 132 97 
36 132 97 37 131 97 38 131 97 
39 131 97 27 133 97 36 133 97 
28 133 97 29 134 97 32 134 97 
33 133 97 34 133 97 35 133 97 
29 135 97 31 135 97 30 135 97 
41 118 98 42 118 98 43 118 98 
44 118 98 40 119 98 44 119 98 
39 120 98 45 120 98 46 120 98 
38 121 98 46 121 98 35 122 98 
36 122 98 37 122 98 47 122 98 
48 122 98 49 122 98 50 122 98 
34 123 98 49 123 98 50 123 98 
31 124 98 32 124 98 33 124 98 
49 124 98 50 124 98 51 124 98 
52 124 98 30 125 98 52 125 98 
29 126 98 49 126 98 50 126 98 
51 126 98 52 126 98 28 127 98 
49 127 98 50 127 98 51 127 98 
27 128 98 45 128 98 46 128 98 
47 128 98 48 128 98 27 129 98 
44 129 98 45 129 98 46 129 98 
47 129 98 27 130 98 41 130 98 
42 130 98 43 129 98 27 131 98 
41 131 98 27 132 98 37 132 98 
38 132 98 39 132 98 40 132 98 
27 133 98 37 133 98 38 133 98 
39 133 98 28 133 98 29 134 98 
33 134 98 34 134 98 35 134 98 
36 134 98 29 135 98 32 135 98 
33 135 98 34 135 98 35 135 98 
30 135 98 31 135 98 40 118 99 
41 118 99 42 118 99 43 118 99 
44 118 99 39 119 99 44 119 99 
38 120 99 45 120 99 46 120 99 
35 121 99 36 121 99 37 121 99 
46 121 99 34 122 99 47 122 99 
48 122 99 49 122 99 50 122 99 
32 123 99 33 123 99 50 123 99 
31 124 99 51 124 99 52 124 99 
30 125 99 52 125 99 28 126 99 
29 126 99 52 126 99 27 127 99 
51 127 99 27 128 99 48 128 99 
49 127 99 50 127 99 27 129 99 
47 129 99 27 130 99 42 130 99 
43 129 99 44 129 99 45 129 99 
46 129 99 27 131 99 41 131 99 
27 132 99 40 132 99 27 133 99 
39 133 99 28 134 99 36 134 99 
37 133 99 38 133 99 28 135 99 
35 135 99 29 135 99 30 135 99 
31 135 99 32 135 99 33 135 99 
34 135 99 43 114 100 44 114 100 
43 115 100 39 118 100 40 118 100 
41 118 100 42 118 100 43 118 100 
44 118 100 38 119 100 44 119 100 
35 120 100 36 120 100 37 120 100 
45 120 100 46 120 100 34 121 100 
46 121 100 33 122 100 47 122 100 
48 122 100 49 122 100 50 122 100 
32 123 100 50 123 100 31 124 100 
51 124 100 52 124 100 30 125 100 
52 125 100 27 126 100 28 126 100 
29 126 100 52 126 100 27 127 100 
51 127 100 27 128 100 48 128 100 
49 127 100 50 127 100 27 129 100 
47 129 100 27 130 100 42 130 100 
43 129 100 44 129 100 45 129 100 
46 129 100 27 131 100 41 131 100 
27 132 100 40 132 100 27 133 100 
39 133 100 27 134 100 36 134 100 
37 133 100 38 133 100 27 135 100 
35 135 100 28 135 100 29 136 100 
30 136 100 31 136 100 32 136 100 
33 135 100 34 135 100 29 137 100 
30 137 100 31 137 100 43 114 101 
43 115 101 42 117 101 43 117 101 
44 117 101 38 118 101 39 118 101 
40 118 101 41 118 101 44 118 101 
34 119 101 35 119 101 36 119 101 
37 119 101 45 119 101 46 119 101 
34 120 101 46 120 101 32 121 101 
33 121 101 47 121 101 48 121 101 
49 121 101 32 122 101 50 122 101 
31 123 101 50 123 101 30 124 101 
51 124 101 52 124 101 28 125 101 
29 125 101 52 125 101 27 126 101 
52 126 101 27 127 101 52 127 101 
53 127 101 27 128 101 48 128 101 
49 127 101 50 127 101 51 127 101 
27 129 101 48 129 101 27 130 101 
42 130 101 43 129 101 44 129 101 
45 129 101 46 129 101 47 129 101 
27 131 101 42 131 101 27 132 101 
40 132 101 41 131 101 27 133 101 
40 133 101 27 134 101 36 134 101 
37 133 101 38 133 101 39 133 101 
27 135 101 36 135 101 28 135 101 
29 136 101 32 136 101 33 135 101 
34 135 101 35 135 101 29 137 101 
32 137 101 30 137 101 31 137 101 
43 116 102 44 116 102 42 117 102 
44 117 102 33 118 102 34 118 102 
35 118 102 36 118 102 37 118 102 
38 118 102 39 118 102 40 118 102 
41 118 102 45 118 102 46 118 102 
47 118 102 48 118 102 32 119 102 
[...]
POINT_DATA 6638
SCALARS scalars float
LOOKUP_TABLE default
1 1 1 1 1 1 1 1 1 
1 1 1 1 1 1 1 1 1 
1 1 1 1 1 1 1 1 1 
1 1 1 1 1 1 1 1 1 
1 1 1 1 1 1 1 1 1 
1 1 1 1 1 1 1 1 1 
1 1 1 1 1 1 1 1 1 
1 1 1 1 1 1 1 1 1 
1 1 1 1 1 1 1 1 1 
1 1 1 1 1 1 1 1 1 
1 1 1 1 1 1 1 1 1 
1 1 1 1 1 1 1 1 1 
1 1 1 1 1 1 1 1 1 
1 1 1 1 1 1 1 1 1 
1 1 1 1 1 1 1 1 1 
1 1 1 1 1 1 1 1 1 
1 1 1 1 1 1 1 1 1 
1 1 1 1 1 1 1 1 1 
1 1 1 1 1 1 1 1 1 
1 1 1 1 1 1 1 1 1 
1 1 1 1 1 1 1 1 1 
1 1 1 1 1 1 1 1 1 
1 1 1 1 1 1 1 1 1 
1 1 1 1 1 1 1 1 1 
1 1 1 1 1 1 1 1 1 
1 1 1 1 1 1 1 1 1 
1 1 1 1 1 1 1 1 1 
1 1 1 1 1 1 1 1 1 
1 1 1 1 1 1 1 1 1 
1 1 1 1 1 1 1 1 1 
1 1 1 1 1 1 1 1 1 
1 1 1 1 1 1 1 1 1 
1 1 1 1 1 1 1 1 1 
1 1 1 1 1 1 1 1 1 
1 1 1 1 1 1 1 1 1 
1 1 1 1 1 1 1 1 1 
1 1 1 1 1 1 1 1 1 
1 1 1 1 1 1 1 1 1 
1 1 1 1 1 1 1 1 1 
1 1 1 1 1 1 1 1 1 
1 1 1 1 1 1 1 1 1 
1 1 1 1 1 1 1 1 1 
1 1 1 1 1 1 1 1 1 
1 1 1 1 1 1 1 1 1 
1 1 1 1 1 1 1 1 1 
1 1 1 1 1 1 1 1 1 
1 1 1 1 1 1 1 1 1 
1 1 1 1 1 1 1 1 1 
1 1 1 1 1 1 1 1 1 
1 1 1 1 1 1 1 1 1 
1 1 1 1 1 1 1 1 1 
1 1 1 1 1 1 1 1 1 
1 1 1 1 1 1 1 1 1 
1 1 1 1 1 1 1 1 1 
1 1 1 1 1 1 1 1 1 
1 1 1 1 1 1 1 1 1 
1 1 1 1 1 1 1 1 1 
1 1 1 1 1 1 1 1 1 
1 1 1 1 1 1 1 1 1 
1 1 1 1 1 1 1 1 1 
1 1 1 1 1 1 1 1 1 
1 1 1 1 1 1 1 1 1 
1 1 1 1 1 1 1 1 1 
1 1 1 1 1 1 1 1 1 
1 1 1 1 1 1 1 1 1 
1 1 1 1 1 1 1 1 1 
1 1 1 1 1 1 1 1 1 
1 1 1 1 1 1 1 1 1 
1 1 1 1 1 1 1 1 1 
1 1 1 1 1 1 1 1 1 
1 1 1 1 1 1 1 1 1 
1 1 1 1 1 1 1 1 1 
1 1 1 1 1 1 1 1 1 
1 1 1 1 1 1 1 1 1 
1 1 1 1 1 1 1 1 1 
1 1 1 1 1 1 1 1 1 
1 1 1 1 1 1 1 1 1 
1 1 1 1 1 1 1 1 1 
1 1 1 1 1 1 1 1 1 
1 1 1 1 1 1 1 1 1 
1 1 1 1 1 1 1 1 1 
1 1 1 1 1 1 1 1 1 
1 1 1 1 1 1 1 1 1 
1 1 1 1 1 1 1 1 1 
1 1 1 1 1 1 1 1 1 
1 1 1 1 1 1 1 1 1 
1 1 1 1 1 1 1 1 1 
1 1 1 1 1 1 1 1 1 
1 1 1 1 1 1 1 1 1 
1 1 1 1 1 1 1 1 1 
1 1 1 1 1 1 1 1 1 
1 1 1 1 1 1 1 1 1 
1 1 1 1 1 1 1 1 1 
1 1 1 1 1 1 1 1 1 
1 1 1 1 1 1 1 1 1 
1 1 1 1 1 1 1 1 1 
1 1 1 1 1 1 1 1 1 
1 1 1 1 1 1 1 1 1 
1 1 1 1 1 1 1 1 1 
1 1 1 1 1 1 1 1 1 
1 1 1 1 1 1 1 1 1 
1 1 1 1 1 1 1 1 1 
1 1 1 1 1 1 1 1 1 
1 1 1 1 1 1 1 1 1 
1 1 1 1 1 1 1 1 1 
1 1 1 1 1 1 1 1 1 
1 1 1 1 1 1 1 1 1 
1 1 1 1 1 1 1 1 1 
1 1 1 1 1 1 1 1 1 
1 1 1 1 1 1 1 1 1 
1 1 1 1 1 1 1 1 1 
1 1 1 1 1 1 1 1 1 
1 1 1 1 1 1 1 1 1 
1 1 1 1 1 1 1 1 1 
1 1 1 1 1 1 1 1 1 
1 1 1 1 1 1 1 1 1 
1 1 1 1 1 1 1 1 1 
1 1 1 1 1 1 1 1 1 
1 1 1 1 1 1 1 1 1 
1 1 1 1 1 1 1 1 1 
1 1 1 1 1 1 1 1 1 
1 1 1 1 1 1 1 1 1 
1 1 1 1 1 1 1 1 1 
1 1 1 1 1 1 1 1 1 
1 1 1 1 1 1 1 1 1 
1 1 1 1 1 1 1 1 1 
1 1 1 1 1 1 1 1 1 
1 1 1 1 1 1 1 1 1 
1 1 1 1 1 1 1 1 1 
1 1 1 1 1 1 1 1 1 
1 1 1 1 1 1 1 1 1 
1 1 1 1 1 1 1 1 1 
1 1 1 1 1 1 1 1 1 
1 1 1 1 1 1 1 1 1 
1 1 1 1 1 1 1 1 1 
1 1 1 1 1 1 1 1 1 
1 1 1 1 1 1 1 1 1 
1 1 1 1 1 1 1 1 1 
1 1 1 1 1 1 1 1 1 
1 1 1 1 1 1 1 1 1 
1 1 1 1 1 1 1 1 1 
1 1 1 1 1 1 1 1 1 
1 1 1 1 1 1 1 1 1 
1 1 1 1 1 1 1 1 1 
1 1 1 1 1 1 1 1 1 
1 1 1 1 1 1 1 1 1 
1 1 1 1 1 1 1 1 1 
1 1 1 1 1 1 1 1 1 
1 1 1 1 1 1 1 1 1 
1 1 1 1 1 1 1 1 1 
1 1 1 1 1 1 1 1 1 
1 1 1 1 1 1 1 1 1 
1 1 1 1 1 1 1 1 1 
1 1 1 1 1 1 1 1 1 
1 1 1 1 1 1 1 1 1 
1 1 1 1 1 1 1 1 1 
1 1 1 1 1 1 1 1 1 
1 1 1 1 1 1 1 1 1 
1 1 1 1 1 1 1 1 1 
1 1 1 1 1 1 1 1 1 
1 1 1 1 1 1 1 1 1 
1 1 1 1 1 1 1 1 1 
1 1 1 1 1 1 1 1 1 
1 1 1 1 1 1 1 1 1 
1 1 1 1 1 1 1 1 1 
1 1 1 1 1 1 1 1 1 
1 1 1 1 1 1 1 1 1 
1 1 1 1 1 1 1 1 1 
1 1 1 1 1 1 1 1 1 
1 1 1 1 1 1 1 1 1 
1 1 1 1 1 1 1 1 1 
1 1 1 1 1 1 1 1 1 
1 1 1 1 1 1 1 1 1 
1 1 1 1 1 1 1 1 1 
1 1 1 1 1 1 1 1 1 
1 1 1 1 1 1 1 1 1 
1 1 1 1 1 1 1 1 1 
1 1 1 1 1 1 1 1 1 
1 1 1 1 1 1 1 1 1 
1 1 1 1 1 1 1 1 1 
1 1 1 1 1 1 1 1 1 
1 1 1 1 1 1 1 1 1 
1 1 1 1 1 1 1 1 1 
1 1 1 1 1 1 1 1 1 
1 1 1 1 1 1 1 1 1 
1 1 1 1 1 1 1 1 1 
1 1 1 1 1 1 1 1 1 
1 1 1 1 1 1 1 1 1 
1 1 1 1 1 1 1 1 1 
1 1 1 1 1 1 1 1 1 
1 1 1 1 1 1 1 1 1 
1 1 1 1 1 1 1 1 1 
1 1 1 1 1 1 1 1 1 
1 1 1 1 1 1 1 1 1 
1 1 1 1 1 1 1 1 1 
1 1 1 1 1 1 1 1 1 
1 1 1 1 1 1 1 1 1 
1 1 1 1 1 1 1 1 1 
1 1 1 1 1 1 1 1 1 
1 1 1 1 1 1 1 1 1 
1 1 1 1 1 1 1 1 1 
1 1 1 1 1 1 1 1 1 
1 1 1 1 1 1 1 1 1 
1 1 1 1 1 1 1 1 1 
1 1 1 1 1 1 1 1 1 
1 1 1 1 1 1 1 1 1 
1 1 1 1 1 1 1 1 1 
1 1 1 1 1 1 1 1 1 
1 1 1 1 1 1 1 1 1 
1 1 1 1 1 1 1 1 1 
1 1 1 1 1 1 1 1 1 
1 1 1 1 1 1 1 1 1 
1 1 1 1 1 1 1 1 1 
1 1 1 1 1 1 1 1 1 
1 1 1 1 1 1 1 1 1 
1 1 1 1 1 1 1 1 1 
1 1 1 1 1 1 1 1 1 
1 1 1 1 1 1 1 1 1 
1 1 1 1 1 1 1 1 1 
1 1 1 1 1 1 1 1 1 
1 1 1 1 1 1 1 1 1 
1 1 1 1 1 1 1 1 1 
1 1 1 1 1 1 1 1 1 
1 1 1 1 1 1 1 1 1 
1 1 1 1 1 1 1 1 1 
1 1 1 1 1 1 1 1 1 
1 1 1 1 1 1 1 1 1 
1 1 1 1 1 1 1 1 1 
1 1 1 1 1 1 1 1 1 
1 1 1 1 1 1 1 1 1 
1 1 1 1 1 1 1 1 1 
1 1 1 1 1 1 1 1 1 
1 1 1 1 1 1 1 1 1 
1 1 1 1 1 1 1 1 1 
1 1 1 1 1 1 1 1 1 
1 1 1 1 1 1 1 1 1 
1 1 1 1 1 1 1 1 1 
1 1 1 1 1 1 1 1 1 
1 1 1 1 1 1 1 1 1 
1 1 1 1 1 1 1 1 1 
1 1 1 1 1 1 1 1 1 
1 1 1 1 1 1 1 1 1 
1 1 1 1 1 1 1 1 1 
1 1 1 1 1 1 1 1 1 
1 1 1 1 1 1 1 1 1 
1 1 1 1 1 1 1 1 1 
1 1 1 1 1 1 1 1 1 
1 1 1 1 1 1 1 1 1 
1 1 1 1 1 1 1 1 1 
1 1 1 1 1 1 1 1 1 
1 1 1 1 1 1 1 1 1 
1 1 1 1 1 1 1 1 1 
1 1 1 1 1 1 1 1 1 
1 1 1 1 1 1 1 1 1 
1 1 1 1 1 1 1 1 1 
1 1 1 1 1 1 1 1 1 
1 1 1 1 1 1 1 1 1 
1 1 1 1 1 1 1 1 1 
1 1 1 1 1 1 1 1 1 
1 1 1 1 1 1 1 1 1 
1 1 1 1 1 1 1 1 1 
1 1 1 1 1 1 1 1 1 
1 1 1 1 1 1 1 1 1 
1 1 1 1 1 1 1 1 1 
1 1 1 1 1 1 1 1 1 
1 1 1 1 1 1 1 1 1 
1 1 1 1 1 1 1 1 1 
1 1 1 1 1 1 1 1 1 
1 1 1 1 1 1 1 1 1 
1 1 1 1 1 1 1 1 1 
1 1 1 1 1 1 1 1 1 
1 1 1 1 1 1 1 1 1 
1 1 1 1 1 1 1 1 1 
1 1 1 1 1 1 1 1 1 
1 1 1 1 1 1 1 1 1 
1 1 1 1 1 1 1 1 1 
1 1 1 1 1 1 1 1 1 
1 1 1 1 1 1 1 1 1 
1 1 1 1 1 1 1 1 1 
1 1 1 1 1 1 1 1 1 
1 1 1 1 1 1 1 1 1 
1 1 1 1 1 1 1 1 1 
1 1 1 1 1 1 1 1 1 
1 1 1 1 1 1 1 1 1 
1 1 1 1 1 1 1 1 1 
1 1 1 1 1 1 1 1 1 
1 1 1 1 1 1 1 1 1 
1 1 1 1 1 1 1 1 1 
1 1 1 1 1 1 1 1 1 
1 1 1 1 1 1 1 1 1 
1 1 1 1 1 1 1 1 1 
1 1 1 1 1 1 1 1 1 
1 1 1 1 1 1 1 1 1 
1 1 1 1 1 1 1 1 1 
1 1 1 1 1 1 1 1 1 
1 1 1 1 1 1 1 1 1 
1 1 1 1 1 1 1 1 1 
1 1 1 1 1 1 1 1 1 
1 1 1 1 1 1 1 1 1 
1 1 1 1 1 1 1 1 1 
1 1 1 1 1 1 1 1 1 
1 1 1 1 1 1 1 1 1 
1 1 1 1 1 1 1 1 1 
1 1 1 1 1 1 1 1 1 
1 1 1 1 1 1 1 1 1 
1 1 1 1 1 1 1 1 1 
1 1 1 1 1 1 1 1 1 
1 1 1 1 1 1 1 1 1 
1 1 1 1 1 1 1 1 1 
1 1 1 1 1 1 1 1 1 
1 1 1 1 1 1 1 1 1 
1 1 1 1 1 1 1 1 1 
1 1 1 1 1 1 1 1 1 
1 1 1 1 1 1 1 1 1 
1 1 1 1 1 1 1 1 1 
1 1 1 1 1 1 1 1 1 
1 1 1 1 1 1 1 1 1 
1 1 1 1 1 1 1 1 1 
1 1 1 1 1 1 1 1 1 
1 1 1 1 1 1 1 1 1 
1 1 1 1 1 1 1 1 1 
1 1 1 1 1 1 1 1 1 
1 1 1 1 1 1 1 1 1 
1 1 1 1 1 1 1 1 1 
1 1 1 1 1 1 1 1 1 
1 1 1 1 1 1 1 1 1 
1 1 1 1 1 1 1 1 1 
1 1 1 1 1 1 1 1 1 
1 1 1 1 1 1 1 1 1 
1 1 1 1 1 1 1 1 1 
1 1 1 1 1 1 1 1 1 
1 1 1 1 1 1 1 1 1 
1 1 1 1 1 1 1 1 1 
1 1 1 1 1 1 1 1 1 
1 1 1 1 1 1 1 1 1 
1 1 1 1 1 1 1 1 1 
1 1 1 1 1 1 1 1 1 
1 1 1 1 1 1 1 1 1 
1 1 1 1 1 1 1 1 1 
1 1 1 1 1 1 1 1 1 
1 1 1 1 1 1 1 1 1 
1 1 1 1 1 1 1 1 1 
1 1 1 1 1 1 1 1 1 
1 1 1 1 1 1 1 1 1 
1 1 1 1 1 1 1 1 1 
1 1 1 1 1 1 1 1 1 
1 1 1 1 1 1 1 1 1 
1 1 1 1 1 1 1 1 1 
1 1 1 1 1 1 1 1 1 
1 1 1 1 1 1 1 1 1 
1 1 1 1 1 1 1 1 1 
1 1 1 1 1 1 1 1 1 
1 1 1 1 1 1 1 1 1 
1 1 1 1 1 1 1 1 1 
1 1 1 1 1 1 1 1 1 
1 1 1 1 1 1 1 1 1 
1 1 1 1 1 1 1 1 1 
1 1 1 1 1 1 1 1 1 
1 1 1 1 1 1 1 1 1 
1 1 1 1 1 1 1 1 1 
1 1 1 1 1 1 1 1 1 
1 1 1 1 1 1 1 1 1 
1 1 1 1 1 1 1 1 1 
1 1 1 1 1 1 1 1 1 
1 1 1 1 1 1 1 1 1 
1 1 1 1 1 1 1 1 1 
1 1 1 1 1 1 1 1 1 
1 1 1 1 1 1 1 1 1 
1 1 1 1 1 1 1 1 1 
1 1 1 1 1 1 1 1 1 
1 1 1 1 1 1 1 1 1 
1 1 1 1 1 1 1 1 1 
1 1 1 1 1 1 1 1 1 
1 1 1 1 1 1 1 1 1 
1 1 1 1 1 1 1 1 1 
1 1 1 1 1 1 1 1 1 
1 1 1 1 1 1 1 1 1 
1 1 1 1 1 1 1 1 1 
1 1 1 1 1 1 1 1 1 
1 1 1 1 1 1 1 1 1 
1 1 1 1 1 1 1 1 1 
1 1 1 1 1 1 1 1 1 
1 1 1 1 1 1 1 1 1 
1 1 1 1 1 1 1 1 1 
1 1 1 1 1 1 1 1 1 
1 1 1 1 1 1 1 1 1 
1 1 1 1 1 1 1 1 1 
1 1 1 1 1 1 1 1 1 
1 1 1 1 1 1 1 1 1 
1 1 1 1 1 1 1 1 1 
1 1 1 1 1 1 1 1 1 
1 1 1 1 1 1 1 1 1 
1 1 1 1 1 1 1 1 1 
1 1 1 1 1 1 1 1 1 
1 1 1 1 1 1 1 1 1 
1 1 1 1 1 1 1 1 1 
1 1 1 1 1 1 1 1 1 
1 1 1 1 1 1 1 1 1 
1 1 1 1 1 1 1 1 1 
1 1 1 1 1 1 1 1 1 
1 1 1 1 1 1 1 1 1 
1 1 1 1 1 1 1 1 1 
1 1 1 1 1 1 1 1 1 
1 1 1 1 1 1 1 1 1 
1 1 1 1 1 1 1 1 1 
1 1 1 1 1 1 1 1 1 
1 1 1 1 1 1 1 1 1 
1 1 1 1 1 1 1 1 1 
1 1 1 1 1 1 1 1 1 
1 1 1 1 1 1 1 1 1 
1 1 1 1 1 1 1 1 1 
1 1 1 1 1 1 1 1 1 
1 1 1 1 1 1 1 1 1 
1 1 1 1 1 1 1 1 1 
1 1 1 1 1 1 1 1 1 
1 1 1 1 1 1 1 1 1 
1 1 1 1 1 1 1 1 1 
1 1 1 1 1 1 1 1 1 
1 1 1 1 1 1 1 1 1 
1 1 1 1 1 1 1 1 1 
1 1 1 1 1 1 1 1 1 
1 1 1 1 1 1 1 1 1 
1 1 1 1 1 1 1 1 1 
1 1 1 1 1 1 1 1 1 
1 1 1 1 1 1 1 1 1 
1 1 1 1 1 1 1 1 1 
1 1 1 1 1 1 1 1 1 
1 1 1 1 1 1 1 1 1 
1 1 1 1 1 1 1 1 1 
1 1 1 1 1 1 1 1 1 
1 1 1 1 1 1 1 1 1 
1 1 1 1 1 1 1 1 1 
1 1 1 1 1 1 1 1 1 
1 1 1 1 1 1 1 1 1 
1 1 1 1 1 1 1 1 1 
1 1 1 1 1 1 1 1 1 
1 1 1 1 1 1 1 1 1 
1 1 1 1 1 1 1 1 1 
1 1 1 1 1 1 1 1 1 
1 1 1 1 1 1 1 1 1 
1 1 1 1 1 1 1 1 1 
1 1 1 1 1 1 1 1 1 
1 1 1 1 1 1 1 1 1 
1 1 1 1 1 1 1 1 1 
1 1 1 1 1 1 1 1 1 
1 1 1 1 1 1 1 1 1 
1 1 1 1 1 1 1 1 1 
1 1 1 1 1 1 1 1 1 
1 1 1 1 1 1 1 1 1 
1 1 1 1 1 1 1 1 1 
1 1 1 1 1 1 1 1 1 
1 1 1 1 1 1 1 1 1 
1 1 1 1 1 1 1 1 1 
1 1 1 1 1 1 1 1 1 
1 1 1 1 1 1 1 1 1 
1 1 1 1 1 1 1 1 1 
1 1 1 1 1 1 1 1 1 
1 1 1 1 1 1 1 1 1 
1 1 1 1 1 1 1 1 1 
1 1 1 1 1 1 1 1 1 
1 1 1 1 1 1 1 1 1 
1 1 1 1 1 1 1 1 1 
1 1 1 1 1 1 1 1 1 
1 1 1 1 1 1 1 1 1 
1 1 1 1 1 1 1 1 1 
1 1 1 1 1 1 1 1 1 
1 1 1 1 1 1 1 1 1 
1 1 1 1 1 1 1 1 1 
1 1 1 1 1 1 1 1 1 
1 1 1 1 1 1 1 1 1 
1 1 1 1 1 1 1 1 1 
1 1 1 1 1 1 1 1 1 
1 1 1 1 1 1 1 1 1 
1 1 1 1 1 1 1 1 1 
1 1 1 1 1 1 1 1 1 
1 1 1 1 1 1 1 1 1 
1 1 1 1 1 1 1 1 1 
1 1 1 1 1 1 1 1 1 
1 1 1 1 1 1 1 1 1 
1 1 1 1 1 1 1 1 1 
1 1 1 1 1 1 1 1 1 
1 1 1 1 1 1 1 1 1 
1 1 1 1 1 1 1 1 1 
1 1 1 1 1 1 1 1 1 
1 1 1 1 1 1 1 1 1 
1 1 1 1 1 1 1 1 1 
1 1 1 1 1 1 1 1 1 
1 1 1 1 1 1 1 1 1 
1 1 1 1 1 1 1 1 1 
1 1 1 1 1 1 1 1 1 
1 1 1 1 1 1 1 1 1 
1 1 1 1 1 1 1 1 1 
1 1 1 1 1 1 1 1 1 
1 1 1 1 1 1 1 1 1 
1 1 1 1 1 1 1 1 1 
1 1 1 1 1 1 1 1 1 
1 1 1 1 1 1 1 1 1 
1 1 1 1 1 1 1 1 1 
1 1 1 1 1 1 1 1 1 
1 1 1 1 1 1 1 1 1 
1 1 1 1 1 1 1 1 1 
1 1 1 1 1 1 1 1 1 
1 1 1 1 1 1 1 1 1 
1 1 1 1 1 1 1 1 1 
1 1 1 1 1 1 1 1 1 
1 1 1 1 1 1 1 1 1 
1 1 1 1 1 1 1 1 1 
1 1 1 1 1 1 1 1 1 
1 1 1 1 1 1 1 1 1 
1 1 1 1 1 1 1 1 1 
1 1 1 1 1 1 1 1 1 
1 1 1 1 1 1 1 1 1 
1 1 1 1 1 1 1 1 1 
1 1 1 1 1 1 1 1 1 
1 1 1 1 1 1 1 1 1 
1 1 1 1 1 1 1 1 1 
1 1 1 1 1 1 1 1 1 
1 1 1 1 1 1 1 1 1 
1 1 1 1 1 1 1 1 1 
1 1 1 1 1 1 1 1 1 
1 1 1 1 1 1 1 1 1 
1 1 1 1 1 1 1 1 1 
1 1 1 1 1 1 1 1 1 
1 1 1 1 1 1 1 1 1 
1 1 1 1 1 1 1 1 1 
1 1 1 1 1 1 1 1 1 
1 1 1 1 1 1 1 1 1 
1 1 1 1 1 1 1 1 1 
1 1 1 1 1 1 1 1 1 
1 1 1 1 1 1 1 1 1 
1 1 1 1 1 1 1 1 1 
1 1 1 1 1 1 1 1 1 
1 1 1 1 1 1 1 1 1 
1 1 1 1 1 1 1 1 1 
1 1 1 1 1 1 1 1 1 
1 1 1 1 1 1 1 1 1 
1 1 1 1 1 1 1 1 1 
1 1 1 1 1 1 1 1 1 
1 1 1 1 1 1 1 1 1 
1 1 1 1 1 1 1 1 1 
1 1 1 1 1 1 1 1 1 
1 1 1 1 1 1 1 1 1 
1 1 1 1 1 1 1 1 1 
1 1 1 1 1 1 1 1 1 
1 1 1 1 1 1 1 1 1 
1 1 1 1 1 1 1 1 1 
1 1 1 1 1 1 1 1 1 
1 1 1 1 1 1 1 1 1 
1 1 1 1 1 1 1 1 1 
1 1 1 1 1 1 1 1 1 
1 1 1 1 1 1 1 1 1 
1 1 1 1 1 1 1 1 1 
1 1 1 1 1 1 1 1 1 
1 1 1 1 1 1 1 1 1 
1 1 1 1 1 1 1 1 1 
1 1 1 1 1 1 1 1 1 
1 1 1 1 1 1 1 1 1 
1 1 1 1 1 1 1 1 1 
1 1 1 1 1 1 1 1 1 
1 1 1 1 1 1 1 1 1 
1 1 1 1 1 1 1 1 1 
1 1 1 1 1 1 1 1 1 
1 1 1 1 1 1 1 1 1 
1 1 1 1 1 1 1 1 1 
1 1 1 1 1 1 1 1 1 
1 1 1 1 1 1 1 1 1 
1 1 1 1 1 1 1 1 1 
1 1 1 1 1 1 1 1 1 
1 1 1 1 1 1 1 1 1 
1 1 1 1 1 1 1 1 1 
1 1 1 1 1 1 1 1 1 
1 1 1 1 1 1 1 1 1 
1 1 1 1 1 1 1 1 1 
1 1 1 1 1 1 1 1 1 
1 1 1 1 1 1 1 1 1 
1 1 1 1 1 1 1 1 1 
1 1 1 1 1 1 1 1 1 
1 1 1 1 1 1 1 1 1 
1 1 1 1 1 1 1 1 1 
1 1 1 1 1 1 1 1 1 
1 1 1 1 1 1 1 1 1 
1 1 1 1 1 1 1 1 1 
1 1 1 1 1 1 1 1 1 
1 1 1 1 1 1 1 1 1 
1 1 1 1 1 1 1 1 1 
1 1 1 1 1 1 1 1 1 
1 1 1 1 1 1 1 1 1 
1 1 1 1 1 1 1 1 1 
1 1 1 1 1 1 1 1 1 
1 1 1 1 1 1 1 1 1 
1 1 1 1 1 1 1 1 1 
1 1 1 1 1 1 1 1 1 
1 1 1 1 1 1 1 1 1 
1 1 1 1 1 1 1 1 1 
1 1 1 1 1 1 1 1 1 
1 1 1 1 1 1 1 1 1 
1 1 1 1 1 1 1 1 1 
1 1 1 1 1 1 1 1 1 
1 1 1 1 1 1 1 1 1 
1 1 1 1 1 1 1 1 1 
1 1 1 1 1 1 1 1 1 
1 1 1 1 1 1 1 1 1 
1 1 1 1 1 1 1 1 1 
1 1 1 1 1 1 1 1 1 
1 1 1 1 1 1 1 1 1 
1 1 1 1 1 1 1 1 1 
1 1 1 1 1 1 1 1 1 
1 1 1 1 1 1 1 1 1 
1 1 1 1 1 1 1 1 1 
1 1 1 1 1 1 1 1 1 
1 1 1 1 1 1 1 1 1 
1 1 1 1 1 1 1 1 1 
1 1 1 1 1 1 1 1 1 
1 1 1 1 1 1 1 1 1 
1 1 1 1 1 1 1 1 1 
1 1 1 1 1 1 1 1 1 
1 1 1 1 1 1 1 1 1 
1 1 1 1 1 1 1 1 1 
1 1 1 1 1 1 1 1 1 
1 1 1 1 1 1 1 1 1 
1 1 1 1 1 1 1 1 1 
1 1 1 1 1 1 1 1 1 
1 1 1 1 1 1 1 1 1 
1 1 1 1 1 1 1 1 1 
1 1 1 1 1 1 1 1 1 
1 1 1 1 1 1 1 1 1 
1 1 1 1 1 1 1 1 1 
1 1 1 1 1 1 1 1 1 
1 1 1 1 1 1 1 1 1 
1 1 1 1 1 1 1 1 1 
1 1 1 1 1 1 1 1 1 
1 1 1 1 1 1 1 1 1 
1 1 1 1 1 1 1 1 1 
1 1 1 1 1 1 1 1 1 
1 1 1 1 1 1 1 1 1 
1 1 1 1 1 1 1 1 1 
1 1 1 1 1 1 1 1 1 
1 1 1 1 1 1 1 1 1 
1 1 1 1 1 1 1 1 1 
1 1 1 1 1 1 1 1 1 
1 1 1 1 1 1 1 1 1 
1 1 1 1 1 1 1 1 1 
1 1 1 1 1 1 1 1 1 
1 1 1 1 1 1 1 1 1 
1 1 1 1 1 1 1 1 1 
1 1 1 1 1 1 1 1 1 
1 1 1 1 1 1 1 1 1 
1 1 1 1 1 1 1 1 1 
1 1 1 1 1 1 1 1 1 
1 1 1 1 1 1 1 1 1 
1 1 1 1 1 1 1 1 1 
1 1 1 1 1 1 1 1 1 
1 1 1 1 1 1 1 1 1 
1 1 1 1 1 1 1 1 1 
1 1 1 1 1 1 1 1 1 
1 1 1 1 1 1 1 1 1 
1 1 1 1 1 1 1 1 1 
1 1 1 1 1 1 1 1 1 
1 1 1 1 1 1 1 1 1 
1 1 1 1 1 1 1 1 1 
1 1 1 1 1 1 1 1 1 
1 1 1 1 1 1 1 1 1 
1 1 1 1 1 1 1 1 1 
1 1 1 1 1 1 1 1 1 
1 1 1 1 1 1 1 1 1 
1 1 1 1 1 1 1 1 1 
1 1 1 1 1 1 1 1 1 
1 1 1 1 1 1 1 1 1 
1 1 1 1 1 1 1 1 1 
1 1 1 1 1 1 1 1 1 
1 1 1 1 1 1 1 1 1 
1 1 1 1 1 1 1 1 1 
1 1 1 1 1 1 1 1 1 
1 1 1 1 1 1 1 1 1 
1 1 1 1 1 1 1 1 1 
1 1 1 1 1 1 1 1 1 
1 1 1 1 1 1 1 1 1 
1 1 1 1 1 1 1 1 1 
1 1 1 1 1 1 1 1 1 
1 1 1 1 1 1 1 1 1 
1 1 1 1 1 1 1 1 1 
1 1 1 1 1 1 1 1 1 
1 1 1 1 1 1 1 1 1 
1 1 1 1 1 1 1 1 1 
1 1 1 1 1 1 1 1 1 
1 1 1 1 1 1 1 1 1 
1 1 1 1 1 1 1 1 1 
1 1 1 1 1 1 1 1 1 
1 1 1 1 1 1 1 1 1 
1 1 1 1 1 1 1 1 1 
1 1 1 1 1 1 1 1 1 
1 1 1 1 1 1 1 1 1 
1 1 1 1 1 1 1 1 1 
1 1 1 1 1 1 1 1 1 
1 1 1 1 1 1 1 1 1 
1 1 1 1 1 1 1 1 1 
1 1 1 1 1 1 1 1 1 
1 1 1 1 1 1 1 1 1 
1 1 1 1 1 1 1 1 1 
1 1 1 1 1 1 1 1 1 
1 1 1 1 1 1 1 1 1 
1 1 1 1 1 1 1 1 1 
1 1 1 1 1 1 1 1 1 
1 1 1 1 1 1 1 1 1 
1 1 1 1 1 1 1 1 1 
1 1 1 1 1 1 1 1 1 
1 1 1 1 1 1 1 1 1 
1 1 1 1 1 1 1 1 1 
1 1 1 1 1 1 1 1 1 
1 1 1 1 1 1 1 1 1 
1 1 1 1 1 1 1 1 1 
1 1 1 1 1 1 1 1 1 
1 1 1 1 1 1 1 1 1 
1 1 1 1 1 1 1 1 1 
1 1 1 1 1 1 1 1 1 
1 1 1 1 1 1 1 1 1 
1 1 1 1 1 1 1 1 1 
1 1 1 1 1 1 1 1 1 
1 1 1 1 1 1 1 1 1 
1 1 1 1 1 1 1 1 1 
1 1 1 1 1 1 1 1 1 
1 1 1 1 1 1 1 1 1 
1 1 1 1 1 1 1 1 1 
1 1 1 1 1 1 1 1 1 
1 1 1 1 1 1 1 1 1 
1 1 1 1 1 1 1 1 1 
1 1 1 1 1 1 1 1 1 
1 1 1 1 1 1 1 1 1 
1 1 1 1 1 1 1 1 1 
1 1 1 1 1 1 1 1 1 
1 1 1 1 1 1 1 1 1 
1 1 1 1 1 1 1 1 1 
1 1 1 1 1 1 1 1 1 
1 1 1 1 1 1 1 1 1 
1 1 1 1 1 1 1 1 1 
1 1 1 1 1 1 1 1 1 
1 1 1 1 1 1 1 1 1 
1 1 1 1 1 
NORMALS normals float
-0.57735 -0.57735 -0.57735 0.57735 -0.57735 -0.57735 -0.57735 0.57735 -0.57735 
0.57735 0.57735 -0.57735 -0.57735 -0.57735 -0.57735 0 -0.707107 -0.707107 
0 -0.707107 -0.707107 0 -0.707107 -0.707107 0 -0.707107 -0.707107 
0 -0.707107 -0.707107 0 -0.707107 -0.707107 0.707107 0 -0.707107 
-0.57735 0.57735 -0.57735 0 0.707107 -0.707107 0 0.707107 -0.707107 
0 0.707107 -0.707107 0 0.707107 -0.707107 0 0.707107 -0.707107 
0.57735 0.57735 -0.57735 -0.57735 -0.57735 -0.57735 0 -0.707107 -0.707107 
0.57735 -0.57735 -0.57735 -0.707107 0.707107 0 1 0 0 
-0.707107 0.707107 0 0 -0.707107 -0.707107 0 -0.707107 -0.707107 
0 -0.707107 -0.707107 0 -0.707107 -0.707107 0 -0.707107 -0.707107 
0.57735 -0.57735 -0.57735 0 1 0 -1 0 0 
0 -1 0 1 0 0 -0.707107 0.707107 0 
0.707107 0.707107 0 0 1 0 0 1 0 
0 1 0 0 1 0 0 1 0 
-0.57735 -0.57735 -0.57735 0.57735 -0.57735 -0.57735 -0.57735 -0.57735 -0.57735 
0 0 -1 0.707107 0 -0.707107 -0.57735 -0.57735 -0.57735 
0 0 -1 0 0 -1 0.707107 0 -0.707107 
-0.57735 -0.57735 -0.57735 0 0 -1 0 0 -1 
0 0 -1 0.707107 0 -0.707107 -0.57735 -0.57735 -0.57735 
0 0 -1 0 0 -1 0 0 -1 
0 0 -1 0 0 -1 0 -0.707107 -0.707107 
0.57735 -0.57735 -0.57735 -1 0 0 0 0 -1 
0 0 -1 0 0 -1 0 0 -1 
0 0 -1 0.707107 0 -0.707107 -1 0 0 
0 0 -1 0 0 -1 0 0 -1 
0 0 -1 0 0 -1 0.707107 0 -0.707107 
-0.707107 0.707107 0 1 0 0 0 1 0 
-1 0 0 0 -1 0 0.707107 0 0.707107 
-0.57735 0.57735 0.57735 0.57735 0.57735 0.57735 0 0.707107 0.707107 
0 0.707107 0.707107 0 0.707107 0.707107 0 0.707107 0.707107 
0 0.707107 0.707107 -0.707107 -0.707107 0 0.707107 -0.707107 0 
-0.707107 -0.707107 0 1 0 0 -0.707107 -0.707107 0 
1 0 0 -0.707107 -0.707107 0 0 -0.707107 -0.707107 
0.57735 -0.57735 -0.57735 -0.707107 -0.707107 0 1 0 0 
-0.707107 -0.707107 0 1 0 0 -0.57735 0.57735 -0.57735 
1 0 0 -0.707107 0.707107 0 0 -0.707107 -0.707107 
0.707107 0 -0.707107 0 1 0 -0.57735 0.57735 0.57735 
0.57735 0.57735 0.57735 0 0.707107 0.707107 0 0.707107 0.707107 
0 0.707107 0.707107 0 0.707107 0.707107 0 0.707107 0.707107 
-0.707107 -0.707107 0 0 -1 0 0 -0.707107 -0.707107 
0 -0.707107 -0.707107 0 -0.707107 -0.707107 0.57735 -0.57735 -0.57735 
-0.707107 -0.707107 0 0 0 -1 0 0 -1 
0 0 -1 0.707107 0 -0.707107 -0.707107 -0.707107 0 
0 0 -1 0 0 -1 0 0 -1 
0.707107 0 -0.707107 -0.707107 -0.707107 0 0 0 -1 
0.707107 0 -0.707107 -0.707107 -0.707107 0 0 0 -1 
0 0 -1 0 -0.707107 -0.707107 0.57735 -0.57735 -0.57735 
-0.707107 -0.707107 0 0 0 -1 0 0 -1 
0 0 -1 0.707107 0 -0.707107 0 -0.707107 -0.707107 
-0.57735 -0.57735 -0.57735 0 0 -1 0 0 -1 
0 0 -1 0 0 -1 0 -0.707107 -0.707107 
0 -0.707107 -0.707107 0 -0.707107 -0.707107 0 -0.707107 -0.707107 
0 -0.707107 -0.707107 0 0 -1 0 -0.707107 -0.707107 
0.707107 0 -0.707107 -0.57735 0.57735 -0.57735 0 0.707107 -0.707107 
0 0.707107 -0.707107 0 0.707107 -0.707107 0 0.707107 -0.707107 
0 0.707107 -0.707107 0 0.707107 -0.707107 0 0.707107 -0.707107 
0 0.707107 -0.707107 0 0.707107 -0.707107 0.57735 0.57735 -0.57735 
0 1 0 0 1 0 0 1 0 
0 1 0 0 1 0 0 1 0 
0 1 0 0 1 0 0 1 0 
0 1 0 0 -0.707107 -0.707107 0 0 -1 
0 0 -1 -0.57735 -0.57735 -0.57735 0 -0.707107 -0.707107 
0 -0.707107 -0.707107 0 -0.707107 -0.707107 0.707107 0 -0.707107 
-0.57735 -0.57735 -0.57735 0 -1 0 1 0 0 
-0.57735 -0.57735 -0.57735 1 0 0 -0.57735 -0.57735 -0.57735 
1 0 0 -0.57735 -0.57735 -0.57735 0 -0.707107 -0.707107 
0.57735 -0.57735 -0.57735 -0.57735 -0.57735 -0.57735 1 0 0 
-0.57735 -0.57735 -0.57735 0 -0.707107 -0.707107 0 -0.707107 -0.707107 
0 -0.707107 -0.707107 0 -0.707107 -0.707107 0 -0.707107 -0.707107 
0 -0.707107 -0.707107 0 -1 0 0.707107 -0.707107 0 
-0.707107 0 -0.707107 1 0 0 -0.57735 -0.57735 -0.57735 
0 0 -1 0 0.707107 -0.707107 0.707107 0.707107 0 
0 0 -1 0 1 0 0 1 0 
0 1 0 0 1 0 0 1 0 
0 1 0 0 1 0 0 1 0 
0 1 0 0 1 0 0 1 0 
0 1 0 0 1 0 0 1 0 
0 1 0 0 1 0 0 1 0 
0 1 0 0 1 0 0 1 0 
0 0 -1 0 0.707107 -0.707107 -0.57735 -0.57735 -0.57735 
0 -1 0 0 -0.707107 -0.707107 0.707107 -0.707107 0 
-0.57735 -0.57735 -0.57735 0 0 -1 0 0 -1 
1 0 0 -0.57735 -0.57735 -0.57735 0 0 -1 
0 0 -1 0 0 -1 0.707107 0 -0.707107 
-0.707107 -0.707107 0 0 0 -1 0.707107 0 -0.707107 
-0.57735 -0.57735 -0.57735 0 -1 0 0 -1 0 
0 0 -1 0 0 -1 0 -0.707107 -0.707107 
0.57735 -0.57735 -0.57735 -0.57735 -0.57735 -0.57735 0 0 -1 
0 0 -1 0 0 -1 0.707107 0 -0.707107 
-0.57735 -0.57735 -0.57735 0 0 -1 0 0 -1 
0 0 -1 0 0 -1 0 -0.707107 -0.707107 
0 -0.707107 -0.707107 0 -0.707107 -0.707107 0.707107 -0.707107 0 
-0.57735 -0.57735 -0.57735 0 0 -1 0 0 -1 
0 0 -1 0 0 -1 0 0 -1 
1 0 0 -0.57735 -0.57735 -0.57735 0 0 -1 
0 0 -1 0 0 -1 0 0 -1 
0 0 -1 1 0 0 -0.707107 -0.707107 0 
0.707107 0 0.707107 -0.57735 -0.57735 -0.57735 0 -0.707107 -0.707107 
0 -0.707107 -0.707107 0 -1 0 0.707107 0 0.707107 
-0.707107 0 -0.707107 0.57735 0.57735 0.57735 -0.707107 0 -0.707107 
0 0 -1 0 0 -1 0 0 -1 
0 0 -1 0 0 -1 0 0 -1 
0 0 -1 0 0 -1 0 0 -1 
0 0 -1 0 0 -1 0 0 -1 
0 0 -1 0 0 -1 0 0 -1 
0.57735 0.57735 -0.57735 0 1 0 0 1 0 
0 1 0 0 0.707107 0.707107 0 0.707107 0.707107 
0 0.707107 0.707107 -0.707107 0 -0.707107 0 0 -1 
0 0 -1 0 0.707107 -0.707107 0 0.707107 -0.707107 
0 0.707107 -0.707107 0 0.707107 -0.707107 0 0.707107 -0.707107 
0 0.707107 -0.707107 0 0.707107 -0.707107 0 0.707107 -0.707107 
0 0.707107 -0.707107 0 0.707107 -0.707107 0 0.707107 -0.707107 
0 0.707107 -0.707107 0.57735 0.57735 -0.57735 -0.707107 0 -0.707107 
0 0 -1 0.57735 0.57735 -0.57735 -0.57735 0.57735 -0.57735 
0 0.707107 -0.707107 0.57735 0.57735 -0.57735 0 -1 0 
-0.57735 -0.57735 -0.57735 0 -1 0 0.57735 -0.57735 0.57735 
-0.57735 -0.57735 -0.57735 0.707107 0 0.707107 -0.57735 -0.57735 -0.57735 
0.707107 -0.707107 0 -0.57735 -0.57735 -0.57735 0 -0.707107 -0.707107 
0 -0.707107 -0.707107 1 0 0 -0.57735 -0.57735 -0.57735 
0 -1 0 0.707107 -0.707107 0 -0.57735 -0.57735 -0.57735 
1 0 0 -0.57735 -0.57735 -0.57735 0 -1 0 
0 -1 0 0.57735 -0.57735 0.57735 -0.57735 -0.57735 -0.57735 
0.707107 0 0.707107 -1 0 0 0.707107 0 0.707107 