# vtk DataFile Version 3.0
vtk output
ASCII
DATASET POLYDATA
POINTS 4140 float
105 137 60.0135 105 136.014 61 104.014 137 61 
106 137 60.0135 106 136.014 61 106.986 137 61 
105 137.986 61 105.014 138 61 106 138 60.0135 
106.986 138 61 105 139 60.0135 105 138.014 61 
104.014 139 61 106 139 60.0135 107 138.014 61 
107 139 60.0135 108 139 60.0135 108 138.014 61 
109 139 60.0135 109 138.014 61 110 139 60.0135 
110 138.014 61 110.986 139 61 105 139.986 61 
105.014 140 61 106 140 60.0135 106.986 140 61 
107 139.986 61 108 139.986 61 109 139.986 61 
109.014 140 61 110 140 60.0135 110.986 140 61 
106 141 60.0135 105.014 141 61 106.986 141 61 
110 141 60.0135 109.014 141 61 110.986 141 61 
106 141.986 61 110 142 60.0135 109.014 142 61 
110.986 142 61 110 143 60.0135 109.014 143 61 
110.986 143 61 110 143.986 61 119 126 61.0135 
119 125.014 62 118.014 126 62 120 126 61.0135 
120 125.014 62 121 126 61.0135 121 125.014 62 
122 126 61.0135 122 125.014 62 122.986 126 62 
118 127 61.0135 118 126.014 62 117.014 127 62 
119 127 61.0135 120 127 61.0135 121 127 61.0135 
122 127 61.0135 122.986 127 62 117 128 61.0135 
117 127.014 62 116.014 128 62 118 128 61.0135 
119 128 61.0135 120 128 61.0135 121 128 61.0135 
122 128 61.0135 122.986 128 62 116 129 61.0135 
116 128.014 62 115.014 129 62 117 129 61.0135 
118 129 61.0135 119 129 61.0135 120 129 61.0135 
121 129 61.0135 121.986 129 62 122 128.986 62 
115 130 61.0135 115 129.014 62 114.014 130 62 
116 130 61.0135 117 130 61.0135 118 130 61.0135 
119 130 61.0135 120 130 61.0135 120.986 130 62 
121 129.986 62 114 131 61.0135 114 130.014 62 
113.014 131 62 115 131 61.0135 116 131 61.0135 
117 131 61.0135 118 131 61.0135 119 131 61.0135 
120 131 61.0135 120.986 131 62 109 132 61.0135 
109 131.014 62 108.014 132 62 110 132 61.0135 
110 131.014 62 111 132 61.0135 111 131.014 62 
112 132 61.0135 112 131.014 62 113 132 61.0135 
113 131.014 62 114 132 61.0135 115 132 61.0135 
116 132 61.0135 117 132 61.0135 118 132 61.0135 
119 132 61.0135 120 132 61.0135 120.986 132 62 
108 133 61.0135 108 132.014 62 107.014 133 62 
109 133 61.0135 110 133 61.0135 111 133 61.0135 
112 133 61.0135 113 133 61.0135 114 133 61.0135 
115 133 61.0135 116 133 61.0135 117 133 61.0135 
118 133 61.0135 119 133 61.0135 119.986 133 62 
120 132.986 62 105 134 61.0135 105 133.014 62 
104.014 134 62 106 134 61.0135 106 133.014 62 
107 134 61.0135 107 133.014 62 108 134 61.0135 
109 134 61.0135 110 134 61.0135 111 134 61.0135 
112 134 61.0135 113 134 61.0135 114 134 61.0135 
115 134 61.0135 116 134 61.0135 117 134 61.0135 
118 134 61.0135 118.986 134 62 119 133.986 62 
105 135 61.0135 104.014 135 62 106 135 61.0135 
107 135 61.0135 108 135 61.0135 109 135 61.0135 
110 135 61.0135 111 135 61.0135 112 135 61.0135 
113 135 61.0135 114 135 61.0135 115 135 61.0135 
116 135 61.0135 117 135 61.0135 117.986 135 62 
118 134.986 62 105 136 61.0135 104.014 136 62 
106 136 61.0135 107 136 61.0135 108 136 61.0135 
109 136 61.0135 110 136 61.0135 111 136 61.0135 
112 136 61.0135 113 136 61.0135 114 136 61.0135 
115 136 61.0135 116 136 61.0135 116.986 136 62 
117 135.986 62 104.014 137 62 107 137 61.0135 
108 137 61.0135 109 137 61.0135 110 137 61.0135 
111 137 61.0135 112 137 61.0135 113 137 61.0135 
114 137 61.0135 115 137 61.0135 115.986 137 62 
116 136.986 62 105 138 61.0135 104.014 138 62 
107 138 61.0135 108 138 61.0135 109 138 61.0135 
110 138 61.0135 111 138 61.0135 112 138 61.0135 
113 138 61.0135 114 138 61.0135 114.986 138 62 
115 137.986 62 104.014 139 62 111 139 61.0135 
112 139 61.0135 113 139 61.0135 114 139 61.0135 
114.986 139 62 105 140 61.0135 104.014 140 62 
107 140 61.0135 108 140 61.0135 109 140 61.0135 
111 140 61.0135 112 140 61.0135 113 140 61.0135 
114 140 61.0135 114.986 140 62 105 141 61.0135 
104.014 141 62 107 141 61.0135 108 141 61.0135 
109 141 61.0135 111 141 61.0135 112 141 61.0135 
113 141 61.0135 113.986 141 62 114 140.986 62 
105 141.986 62 106 141.986 62 107 142 61.0135 
106.014 142 62 108 142 61.0135 109 142 61.0135 
111 142 61.0135 112 142 61.0135 112.986 142 62 
113 141.986 62 107 143 61.0135 106.014 143 62 
108 143 61.0135 109 143 61.0135 111 143 61.0135 
111.986 143 62 112 142.986 62 107 143.986 62 
108 143.986 62 108.014 144 62 109 144 61.0135 
110 144 61.0135 110.986 144 62 111 143.986 62 
109 145 61.0135 108.014 145 62 109.986 145 62 
110 144.986 62 109 145.986 62 118 125 62.0135 
118 124.014 63 117.014 125 63 119 125 62.0135 
119 124.014 63 120 125 62.0135 120 124.014 63 
121 125 62.0135 121 124.014 63 122 125 62.0135 
122 124.014 63 122.986 125 63 118 126 62.0135 
117.014 126 63 122.986 126 63 117 127 62.0135 
117 126.014 63 116.014 127 63 122.986 127 63 
116.014 128 63 122.986 128 63 116 128.014 63 
115.014 129 63 122 129 62.0135 122.986 129 63 
115 129.014 63 114.014 130 63 120.986 130 63 
121 129.986 63 122 129.986 63 114 130.014 63 
113.014 131 63 120.986 131 63 109 131.014 63 
108.014 132 63 110 131.014 63 111 131.014 63 
112 131.014 63 113 131.014 63 120.986 132 63 
108 132.014 63 107.014 133 63 120 133 62.0135 
120.986 133 63 104 134 62.0135 104 133.014 63 
103.014 134 63 105 133.014 63 106 133.014 63 
107 133.014 63 118.986 134 63 119 133.986 63 
120 133.986 63 104 135 62.0135 103.014 135 63 
118 135 62.0135 118.986 135 63 104 136 62.0135 
103.014 136 63 116.986 136 63 117 135.986 63 
118 135.986 63 104 137 62.0135 103.014 137 63 
116 137 62.0135 116.986 137 63 104 138 62.0135 
103.014 138 63 114.986 138 63 115 137.986 63 
116 137.986 63 104 139 62.0135 103.014 139 63 
114.986 139 63 104 139.986 63 104.014 140 63 
114.986 140 63 104.014 141 63 114 141 62.0135 
114.986 141 63 105 141.986 63 106 141.986 63 
106.014 142 63 112.986 142 63 113 141.986 63 
114 141.986 63 106.014 143 63 112 143 62.0135 
112.986 143 63 107 143.986 63 108 144 62.0135 
107.014 144 63 110.986 144 63 111 143.986 63 
112 143.986 63 108 145 62.0135 107.014 145 63 
110 145 62.0135 110.986 145 63 108 145.986 63 
109 145.986 63 110 145.986 63 125 110 63.0135 
125 109.014 64 124.014 110 64 126 110 63.0135 
126 109.014 64 126.986 110 64 124 111 63.0135 
124 110.014 64 123.014 111 64 125 111 63.0135 
126 111 63.0135 126.986 111 64 123 112 63.0135 
123 111.014 64 122.014 112 64 124 112 63.0135 
125 112 63.0135 126 112 63.0135 126.986 112 64 
123 113 63.0135 122.014 113 64 124 113 63.0135 
125 113 63.0135 126 113 63.0135 126.986 113 64 
123 114 63.0135 122.014 114 64 124 114 63.0135 
125 114 63.0135 126 114 63.0135 126.986 114 64 
122 115 63.0135 122 114.014 64 121.014 115 64 
123 115 63.0135 124 115 63.0135 125 115 63.0135 
125.986 115 64 126 114.986 64 121 116 63.0135 
121 115.014 64 120.014 116 64 122 116 63.0135 
123 116 63.0135 124 116 63.0135 124.986 116 64 
125 115.986 64 120 117 63.0135 120 116.014 64 
119.014 117 64 121 117 63.0135 122 117 63.0135 
123 117 63.0135 124 117 63.0135 124.986 117 64 
119 118 63.0135 119 117.014 64 118.014 118 64 
120 118 63.0135 121 118 63.0135 122 118 63.0135 
123 118 63.0135 124 118 63.0135 124.986 118 64 
119 119 63.0135 118.014 119 64 120 119 63.0135 
121 119 63.0135 122 119 63.0135 123 119 63.0135 
124 119 63.0135 124.986 119 64 119 120 63.0135 
118.014 120 64 120 120 63.0135 121 120 63.0135 
122 120 63.0135 123 120 63.0135 124 120 63.0135 
124.986 120 64 119 121 63.0135 118.014 121 64 
120 121 63.0135 121 121 63.0135 122 121 63.0135 
123 121 63.0135 124 121 63.0135 124.986 121 64 
119 122 63.0135 118.014 122 64 120 122 63.0135 
121 122 63.0135 122 122 63.0135 123 122 63.0135 
124 122 63.0135 124.986 122 64 118 123 63.0135 
118 122.014 64 117.014 123 64 119 123 63.0135 
120 123 63.0135 121 123 63.0135 122 123 63.0135 
123 123 63.0135 124 123 63.0135 124.986 123 64 
117 124 63.0135 117 123.014 64 116.014 124 64 
118 124 63.0135 119 124 63.0135 120 124 63.0135 
121 124 63.0135 122 124 63.0135 123 124 63.0135 
124 124 63.0135 124.986 124 64 117 125 63.0135 
116.014 125 64 123 125 63.0135 124 125 63.0135 
124.986 125 64 117 126 63.0135 116.014 126 64 
123 126 63.0135 124 126 63.0135 124.986 126 64 
116.014 127 64 123 127 63.0135 124 127 63.0135 
124.986 127 64 116.014 128 64 123 128 63.0135 
124 128 63.0135 124.986 128 64 116 128.014 64 
115.014 129 64 123 129 63.0135 123.986 129 64 
124 128.986 64 115 129.014 64 114.014 130 64 
121 130 63.0135 122 130 63.0135 122.986 130 64 
123 129.986 64 114 130.014 64 113.014 131 64 
121 131 63.0135 122 131 63.0135 122.986 131 64 
109 131.014 64 108.014 132 64 110 131.014 64 
111 131.014 64 112 131.014 64 113 131.014 64 
121 132 63.0135 122 132 63.0135 122.986 132 64 
108 132.014 64 107.014 133 64 121 133 63.0135 
122 133 63.0135 122.986 133 64 104 134 63.9865 
104.014 134 64 105 133.014 64 106 133.014 64 
107 133.014 64 119 134 63.0135 120 134 63.0135 
121 134 63.0135 122 134 63.0135 122.986 134 64 
104 134.014 64 103.014 135 64 119 135 63.0135 
120 135 63.0135 121 135 63.0135 121.986 135 64 
122 134.986 64 103 136 63.0135 103 135.014 64 
102.014 136 64 117 136 63.0135 118 136 63.0135 
119 136 63.0135 120 136 63.0135 120.986 136 64 
121 135.986 64 103 137 63.0135 102.014 137 64 
117 137 63.0135 118 137 63.0135 119 137 63.0135 
120 137 63.0135 120.986 137 64 103 138 63.0135 
102.014 138 64 115 138 63.0135 116 138 63.0135 
117 138 63.0135 118 138 63.0135 119 138 63.0135 
120 138 63.0135 120.986 138 64 103 139 63.0135 
102.014 139 64 115 139 63.0135 116 139 63.0135 
117 139 63.0135 118 139 63.0135 119 139 63.0135 
119.986 139 64 120 138.986 64 103 139.986 64 
104 139.986 64 104.014 140 64 115 140 63.0135 
116 140 63.0135 117 140 63.0135 118 140 63.0135 
118.986 140 64 119 139.986 64 104.014 141 64 
115 141 63.0135 116 141 63.0135 117 141 63.0135 
118 141 63.0135 118.986 141 64 105 141.986 64 
106 141.986 64 106.014 142 64 113 142 63.0135 
114 142 63.0135 115 142 63.0135 116 142 63.0135 
117 142 63.0135 118 142 63.0135 118.986 142 64 
106.014 143 64 113 143 63.0135 114 143 63.0135 
115 143 63.0135 116 143 63.0135 117 143 63.0135 
117.986 143 64 118 142.986 64 107 144 63.0135 
106.014 144 64 111 144 63.0135 112 144 63.0135 
[...]
POINT_DATA 4140
SCALARS scalars float
LOOKUP_TABLE default
1 1 1 1 1 1 1 1 1 
1 1 1 1 1 1 1 1 1 
1 1 1 1 1 1 1 1 1 
1 1 1 1 1 1 1 1 1 
1 1 1 1 1 1 1 1 1 
1 1 1 1 1 1 1 1 1 
1 1 1 1 1 1 1 1 1 
1 1 1 1 1 1 1 1 1 
1 1 1 1 1 1 1 1 1 
1 1 1 1 1 1 1 1 1 
1 1 1 1 1 1 1 1 1 
1 1 1 1 1 1 1 1 1 
1 1 1 1 1 1 1 1 1 
1 1 1 1 1 1 1 1 1 
1 1 1 1 1 1 1 1 1 
1 1 1 1 1 1 1 1 1 
1 1 1 1 1 1 1 1 1 
1 1 1 1 1 1 1 1 1 
1 1 1 1 1 1 1 1 1 
1 1 1 1 1 1 1 1 1 
1 1 1 1 1 1 1 1 1 
1 1 1 1 1 1 1 1 1 
1 1 1 1 1 1 1 1 1 
1 1 1 1 1 1 1 1 1 
1 1 1 1 1 1 1 1 1 
1 1 1 1 1 1 1 1 1 
1 1 1 1 1 1 1 1 1 
1 1 1 1 1 1 1 1 1 
1 1 1 1 1 1 1 1 1 
1 1 1 1 1 1 1 1 1 
1 1 1 1 1 1 1 1 1 
1 1 1 1 1 1 1 1 1 
1 1 1 1 1 1 1 1 1 
1 1 1 1 1 1 1 1 1 
1 1 1 1 1 1 1 1 1 
1 1 1 1 1 1 1 1 1 
1 1 1 1 1 1 1 1 1 
1 1 1 1 1 1 1 1 1 
1 1 1 1 1 1 1 1 1 
1 1 1 1 1 1 1 1 1 
1 1 1 1 1 1 1 1 1 
1 1 1 1 1 1 1 1 1 
1 1 1 1 1 1 1 1 1 
1 1 1 1 1 1 1 1 1 
1 1 1 1 1 1 1 1 1 
1 1 1 1 1 1 1 1 1 
1 1 1 1 1 1 1 1 1 
1 1 1 1 1 1 1 1 1 
1 1 1 1 1 1 1 1 1 
1 1 1 1 1 1 1 1 1 
1 1 1 1 1 1 1 1 1 
1 1 1 1 1 1 1 1 1 
1 1 1 1 1 1 1 1 1 
1 1 1 1 1 1 1 1 1 
1 1 1 1 1 1 1 1 1 
1 1 1 1 1 1 1 1 1 
1 1 1 1 1 1 1 1 1 
1 1 1 1 1 1 1 1 1 
1 1 1 1 1 1 1 1 1 
1 1 1 1 1 1 1 1 1 
1 1 1 1 1 1 1 1 1 
1 1 1 1 1 1 1 1 1 
1 1 1 1 1 1 1 1 1 
1 1 1 1 1 1 1 1 1 
1 1 1 1 1 1 1 1 1 
1 1 1 1 1 1 1 1 1 
1 1 1 1 1 1 1 1 1 
1 1 1 1 1 1 1 1 1 
1 1 1 1 1 1 1 1 1 
1 1 1 1 1 1 1 1 1 
1 1 1 1 1 1 1 1 1 
1 1 1 1 1 1 1 1 1 
1 1 1 1 1 1 1 1 1 
1 1 1 1 1 1 1 1 1 
1 1 1 1 1 1 1 1 1 
1 1 1 1 1 1 1 1 1 
1 1 1 1 1 1 1 1 1 
1 1 1 1 1 1 1 1 1 
1 1 1 1 1 1 1 1 1 
1 1 1 1 1 1 1 1 1 
1 1 1 1 1 1 1 1 1 
1 1 1 1 1 1 1 1 1 
1 1 1 1 1 1 1 1 1 
1 1 1 1 1 1 1 1 1 
1 1 1 1 1 1 1 1 1 
1 1 1 1 1 1 1 1 1 
1 1 1 1 1 1 1 1 1 
1 1 1 1 1 1 1 1 1 
1 1 1 1 1 1 1 1 1 
1 1 1 1 1 1 1 1 1 
1 1 1 1 1 1 1 1 1 
1 1 1 1 1 1 1 1 1 
1 1 1 1 1 1 1 1 1 
1 1 1 1 1 1 1 1 1 
1 1 1 1 1 1 1 1 1 
1 1 1 1 1 1 1 1 1 
1 1 1 1 1 1 1 1 1 
1 1 1 1 1 1 1 1 1 
1 1 1 1 1 1 1 1 1 
1 1 1 1 1 1 1 1 1 
1 1 1 1 1 1 1 1 1 
1 1 1 1 1 1 1 1 1 
1 1 1 1 1 1 1 1 1 
1 1 1 1 1 1 1 1 1 
1 1 1 1 1 1 1 1 1 
1 1 1 1 1 1 1 1 1 
1 1 1 1 1 1 1 1 1 
1 1 1 1 1 1 1 1 1 
1 1 1 1 1 1 1 1 1 
1 1 1 1 1 1 1 1 1 
1 1 1 1 1 1 1 1 1 
1 1 1 1 1 1 1 1 1 
1 1 1 1 1 1 1 1 1 
1 1 1 1 1 1 1 1 1 
1 1 1 1 1 1 1 1 1 
1 1 1 1 1 1 1 1 1 
1 1 1 1 1 1 1 1 1 
1 1 1 1 1 1 1 1 1 
1 1 1 1 1 1 1 1 1 
1 1 1 1 1 1 1 1 1 
1 1 1 1 1 1 1 1 1 
1 1 1 1 1 1 1 1 1 
1 1 1 1 1 1 1 1 1 
1 1 1 1 1 1 1 1 1 
1 1 1 1 1 1 1 1 1 
1 1 1 1 1 1 1 1 1 
1 1 1 1 1 1 1 1 1 
1 1 1 1 1 1 1 1 1 
1 1 1 1 1 1 1 1 1 
1 1 1 1 1 1 1 1 1 
1 1 1 1 1 1 1 1 1 
1 1 1 1 1 1 1 1 1 
1 1 1 1 1 1 1 1 1 
1 1 1 1 1 1 1 1 1 
1 1 1 1 1 1 1 1 1 
1 1 1 1 1 1 1 1 1 
1 1 1 1 1 1 1 1 1 
1 1 1 1 1 1 1 1 1 
1 1 1 1 1 1 1 1 1 
1 1 1 1 1 1 1 1 1 
1 1 1 1 1 1 1 1 1 
1 1 1 1 1 1 1 1 1 
1 1 1 1 1 1 1 1 1 
1 1 1 1 1 1 1 1 1 
1 1 1 1 1 1 1 1 1 
1 1 1 1 1 1 1 1 1 
1 1 1 1 1 1 1 1 1 
1 1 1 1 1 1 1 1 1 
1 1 1 1 1 1 1 1 1 
1 1 1 1 1 1 1 1 1 
1 1 1 1 1 1 1 1 1 
1 1 1 1 1 1 1 1 1 
1 1 1 1 1 1 1 1 1 
1 1 1 1 1 1 1 1 1 
1 1 1 1 1 1 1 1 1 
1 1 1 1 1 1 1 1 1 
1 1 1 1 1 1 1 1 1 
1 1 1 1 1 1 1 1 1 
1 1 1 1 1 1 1 1 1 
1 1 1 1 1 1 1 1 1 
1 1 1 1 1 1 1 1 1 
1 1 1 1 1 1 1 1 1 
1 1 1 1 1 1 1 1 1 
1 1 1 1 1 1 1 1 1 
1 1 1 1 1 1 1 1 1 
1 1 1 1 1 1 1 1 1 
1 1 1 1 1 1 1 1 1 
1 1 1 1 1 1 1 1 1 
1 1 1 1 1 1 1 1 1 
1 1 1 1 1 1 1 1 1 
1 1 1 1 1 1 1 1 1 
1 1 1 1 1 1 1 1 1 
1 1 1 1 1 1 1 1 1 
1 1 1 1 1 1 1 1 1 
1 1 1 1 1 1 1 1 1 
1 1 1 1 1 1 1 1 1 
1 1 1 1 1 1 1 1 1 
1 1 1 1 1 1 1 1 1 
1 1 1 1 1 1 1 1 1 
1 1 1 1 1 1 1 1 1 
1 1 1 1 1 1 1 1 1 
1 1 1 1 1 1 1 1 1 
1 1 1 1 1 1 1 1 1 
1 1 1 1 1 1 1 1 1 
1 1 1 1 1 1 1 1 1 
1 1 1 1 1 1 1 1 1 
1 1 1 1 1 1 1 1 1 
1 1 1 1 1 1 1 1 1 
1 1 1 1 1 1 1 1 1 
1 1 1 1 1 1 1 1 1 
1 1 1 1 1 1 1 1 1 
1 1 1 1 1 1 1 1 1 
1 1 1 1 1 1 1 1 1 
1 1 1 1 1 1 1 1 1 
1 1 1 1 1 1 1 1 1 
1 1 1 1 1 1 1 1 1 
1 1 1 1 1 1 1 1 1 
1 1 1 1 1 1 1 1 1 
1 1 1 1 1 1 1 1 1 
1 1 1 1 1 1 1 1 1 
1 1 1 1 1 1 1 1 1 
1 1 1 1 1 1 1 1 1 
1 1 1 1 1 1 1 1 1 
1 1 1 1 1 1 1 1 1 
1 1 1 1 1 1 1 1 1 
1 1 1 1 1 1 1 1 1 
1 1 1 1 1 1 1 1 1 
1 1 1 1 1 1 1 1 1 
1 1 1 1 1 1 1 1 1 
1 1 1 1 1 1 1 1 1 
1 1 1 1 1 1 1 1 1 
1 1 1 1 1 1 1 1 1 
1 1 1 1 1 1 1 1 1 
1 1 1 1 1 1 1 1 1 
1 1 1 1 1 1 1 1 1 
1 1 1 1 1 1 1 1 1 
1 1 1 1 1 1 1 1 1 
1 1 1 1 1 1 1 1 1 
1 1 1 1 1 1 1 1 1 
1 1 1 1 1 1 1 1 1 
1 1 1 1 1 1 1 1 1 
1 1 1 1 1 1 1 1 1 
1 1 1 1 1 1 1 1 1 
1 1 1 1 1 1 1 1 1 
1 1 1 1 1 1 1 1 1 
1 1 1 1 1 1 1 1 1 
1 1 1 1 1 1 1 1 1 
1 1 1 1 1 1 1 1 1 
1 1 1 1 1 1 1 1 1 
1 1 1 1 1 1 1 1 1 
1 1 1 1 1 1 1 1 1 
1 1 1 1 1 1 1 1 1 
1 1 1 1 1 1 1 1 1 
1 1 1 1 1 1 1 1 1 
1 1 1 1 1 1 1 1 1 
1 1 1 1 1 1 1 1 1 
1 1 1 1 1 1 1 1 1 
1 1 1 1 1 1 1 1 1 
1 1 1 1 1 1 1 1 1 
1 1 1 1 1 1 1 1 1 
1 1 1 1 1 1 1 1 1 
1 1 1 1 1 1 1 1 1 
1 1 1 1 1 1 1 1 1 
1 1 1 1 1 1 1 1 1 
1 1 1 1 1 1 1 1 1 
1 1 1 1 1 1 1 1 1 
1 1 1 1 1 1 1 1 1 
1 1 1 1 1 1 1 1 1 
1 1 1 1 1 1 1 1 1 
1 1 1 1 1 1 1 1 1 
1 1 1 1 1 1 1 1 1 
1 1 1 1 1 1 1 1 1 
1 1 1 1 1 1 1 1 1 
1 1 1 1 1 1 1 1 1 
1 1 1 1 1 1 1 1 1 
1 1 1 1 1 1 1 1 1 
1 1 1 1 1 1 1 1 1 
1 1 1 1 1 1 1 1 1 
1 1 1 1 1 1 1 1 1 
1 1 1 1 1 1 1 1 1 
1 1 1 1 1 1 1 1 1 
1 1 1 1 1 1 1 1 1 
1 1 1 1 1 1 1 1 1 
1 1 1 1 1 1 1 1 1 
1 1 1 1 1 1 1 1 1 
1 1 1 1 1 1 1 1 1 
1 1 1 1 1 1 1 1 1 
1 1 1 1 1 1 1 1 1 
1 1 1 1 1 1 1 1 1 
1 1 1 1 1 1 1 1 1 
1 1 1 1 1 1 1 1 1 
1 1 1 1 1 1 1 1 1 
1 1 1 1 1 1 1 1 1 
1 1 1 1 1 1 1 1 1 
1 1 1 1 1 1 1 1 1 
1 1 1 1 1 1 1 1 1 
1 1 1 1 1 1 1 1 1 
1 1 1 1 1 1 1 1 1 
1 1 1 1 1 1 1 1 1 
1 1 1 1 1 1 1 1 1 
1 1 1 1 1 1 1 1 1 
1 1 1 1 1 1 1 1 1 
1 1 1 1 1 1 1 1 1 
1 1 1 1 1 1 1 1 1 
1 1 1 1 1 1 1 1 1 
1 1 1 1 1 1 1 1 1 
1 1 1 1 1 1 1 1 1 
1 1 1 1 1 1 1 1 1 
1 1 1 1 1 1 1 1 1 
1 1 1 1 1 1 1 1 1 
1 1 1 1 1 1 1 1 1 
1 1 1 1 1 1 1 1 1 
1 1 1 1 1 1 1 1 1 
1 1 1 1 1 1 1 1 1 
1 1 1 1 1 1 1 1 1 
1 1 1 1 1 1 1 1 1 
1 1 1 1 1 1 1 1 1 
1 1 1 1 1 1 1 1 1 
1 1 1 1 1 1 1 1 1 
1 1 1 1 1 1 1 1 1 
1 1 1 1 1 1 1 1 1 
1 1 1 1 1 1 1 1 1 
1 1 1 1 1 1 1 1 1 
1 1 1 1 1 1 1 1 1 
1 1 1 1 1 1 1 1 1 
1 1 1 1 1 1 1 1 1 
1 1 1 1 1 1 1 1 1 
1 1 1 1 1 1 1 1 1 
1 1 1 1 1 1 1 1 1 
1 1 1 1 1 1 1 1 1 
1 1 1 1 1 1 1 1 1 
1 1 1 1 1 1 1 1 1 
1 1 1 1 1 1 1 1 1 
1 1 1 1 1 1 1 1 1 
1 1 1 1 1 1 1 1 1 
1 1 1 1 1 1 1 1 1 
1 1 1 1 1 1 1 1 1 
1 1 1 1 1 1 1 1 1 
1 1 1 1 1 1 1 1 1 
1 1 1 1 1 1 1 1 1 
1 1 1 1 1 1 1 1 1 
1 1 1 1 1 1 1 1 1 
1 1 1 1 1 1 1 1 1 
1 1 1 1 1 1 1 1 1 
1 1 1 1 1 1 1 1 1 
1 1 1 1 1 1 1 1 1 
1 1 1 1 1 1 1 1 1 
1 1 1 1 1 1 1 1 1 
1 1 1 1 1 1 1 1 1 
1 1 1 1 1 1 1 1 1 
1 1 1 1 1 1 1 1 1 
1 1 1 1 1 1 1 1 1 
1 1 1 1 1 1 1 1 1 
1 1 1 1 1 1 1 1 1 
1 1 1 1 1 1 1 1 1 
1 1 1 1 1 1 1 1 1 
1 1 1 1 1 1 1 1 1 
1 1 1 1 1 1 1 1 1 
1 1 1 1 1 1 1 1 1 
1 1 1 1 1 1 1 1 1 
1 1 1 1 1 1 1 1 1 
1 1 1 1 1 1 1 1 1 
1 1 1 1 1 1 1 1 1 
1 1 1 1 1 1 1 1 1 
1 1 1 1 1 1 1 1 1 
1 1 1 1 1 1 1 1 1 
1 1 1 1 1 1 1 1 1 
1 1 1 1 1 1 1 1 1 
1 1 1 1 1 1 1 1 1 
1 1 1 1 1 1 1 1 1 
1 1 1 1 1 1 1 1 1 
1 1 1 1 1 1 1 1 1 
1 1 1 1 1 1 1 1 1 
1 1 1 1 1 1 1 1 1 
1 1 1 1 1 1 1 1 1 
1 1 1 1 1 1 1 1 1 
1 1 1 1 1 1 1 1 1 
1 1 1 1 1 1 1 1 1 
1 1 1 1 1 1 1 1 1 
1 1 1 1 1 1 1 1 1 
1 1 1 1 1 1 1 1 1 
1 1 1 1 1 1 1 1 1 
1 1 1 1 1 1 1 1 1 
1 1 1 1 1 1 1 1 1 
1 1 1 1 1 1 1 1 1 
1 1 1 1 1 1 1 1 1 
1 1 1 1 1 1 1 1 1 
1 1 1 1 1 1 1 1 1 
1 1 1 1 1 1 1 1 1 
1 1 1 1 1 1 1 1 1 
1 1 1 1 1 1 1 1 1 
1 1 1 1 1 1 1 1 1 
1 1 1 1 1 1 1 1 1 
1 1 1 1 1 1 1 1 1 
1 1 1 1 1 1 1 1 1 
1 1 1 1 1 1 1 1 1 
1 1 1 1 1 1 1 1 1 
1 1 1 1 1 1 1 1 1 
1 1 1 1 1 1 1 1 1 
1 1 1 1 1 1 1 1 1 
1 1 1 1 1 1 1 1 1 
1 1 1 1 1 1 1 1 1 
1 1 1 1 1 1 1 1 1 
1 1 1 1 1 1 1 1 1 
1 1 1 1 1 1 1 1 1 
1 1 1 1 1 1 1 1 1 
1 1 1 1 1 1 1 1 1 
1 1 1 1 1 1 1 1 1 
1 1 1 1 1 1 1 1 1 
1 1 1 1 1 1 1 1 1 
1 1 1 1 1 1 1 1 1 
1 1 1 1 1 1 1 1 1 
1 1 1 1 1 1 1 1 1 
1 1 1 1 1 1 1 1 1 
1 1 1 1 1 1 1 1 1 
1 1 1 1 1 1 1 1 1 
1 1 1 1 1 1 1 1 1 
1 1 1 1 1 1 1 1 1 
1 1 1 1 1 1 1 1 1 
1 1 1 1 1 1 1 1 1 
1 1 1 1 1 1 1 1 1 
1 1 1 1 1 1 1 1 1 
1 1 1 1 1 1 1 1 1 
1 1 1 1 1 1 1 1 1 
1 1 1 1 1 1 1 1 1 
1 1 1 1 1 1 1 1 1 
1 1 1 1 1 1 1 1 1 
1 1 1 1 1 1 1 1 1 
1 1 1 1 1 1 1 1 1 
1 1 1 1 1 1 1 1 1 
1 1 1 1 1 1 1 1 1 
1 1 1 1 1 1 1 1 1 
1 1 1 1 1 1 1 1 1 
1 1 1 1 1 1 1 1 1 
1 1 1 1 1 1 1 1 1 
1 1 1 1 1 1 1 1 1 
1 1 1 1 1 1 1 1 1 
1 1 1 1 1 1 1 1 1 
1 1 1 1 1 1 1 1 1 
1 1 1 1 1 1 1 1 1 
1 1 1 1 1 1 1 1 1 
1 1 1 1 1 1 1 1 1 
1 1 1 1 1 1 1 1 1 
1 1 1 1 1 1 1 1 1 
1 1 1 1 1 1 1 1 1 
1 1 1 1 1 1 1 1 1 
1 1 1 1 1 1 1 1 1 
1 1 1 1 1 1 1 1 1 
1 1 1 1 1 1 1 1 1 
1 1 1 1 1 1 1 1 1 
1 1 1 1 1 1 1 1 1 
1 1 1 1 1 1 1 1 1 
1 1 1 1 1 1 1 1 1 
1 1 1 1 1 1 1 1 1 
1 1 1 1 1 1 1 1 1 
1 1 1 1 1 1 1 1 1 
1 1 1 1 1 1 1 1 1 
1 1 1 1 1 1 1 1 1 
1 1 1 1 1 1 1 1 1 
1 1 1 1 1 1 1 1 1 
1 1 1 1 1 1 1 1 1 
1 1 1 1 1 1 1 1 1 
1 1 1 1 1 1 1 1 1 
1 1 1 1 1 1 1 1 1 
1 1 1 1 1 1 1 1 1 
1 1 1 1 1 1 1 1 1 
1 1 1 1 1 1 1 1 1 
1 1 1 1 1 1 1 1 1 
1 1 1 1 1 1 1 1 1 
1 1 1 1 1 1 1 1 1 
1 1 1 1 1 1 1 1 1 
1 1 1 1 1 1 1 1 1 
1 1 1 1 1 1 1 1 1 
1 1 1 1 1 1 1 1 1 
1 1 1 1 1 1 1 1 1 
1 1 1 1 1 1 1 1 1 
1 1 1 1 1 1 1 1 1 
1 1 1 1 1 1 1 1 1 
1 1 1 1 1 1 1 1 1 
1 1 1 1 1 1 1 1 1 

NORMALS normals float
-0.0135123 0 -0.999909 -0.00961983 -0.702248 -0.711868 -0.999909 0 -0.0135123 
0.013511 -0.013511 -0.999817 0.00955506 -0.707075 -0.707075 0.707075 -0.00955506 -0.707075 
-0.707107 0 -0.707107 -0.70228 0 -0.711901 0 0 -1 
0.574714 -0.574714 -0.582587 -0.0135123 0 -0.999909 -0.707107 0 -0.707107 
-0.999909 0 -0.0135123 0 0 -1 0.574714 -0.574714 -0.582587 
0 0 -1 0 0 -1 0 -0.70228 -0.711901 
0 0 -1 0 -0.70228 -0.711901 0.013511 -0.013511 -0.999817 
0.00955506 -0.707075 -0.707075 0.707075 -0.00955506 -0.707075 -0.579951 0.572114 -0.579951 
-0.574714 0.574714 -0.582587 0 0 -1 0.574714 0.574714 -0.582587 
0.574714 0.574714 -0.582587 0 0.70228 -0.711901 -0.574714 0.574714 -0.582587 
-0.574714 0.574714 -0.582587 0 0 -1 0.70228 0 -0.711901 
0 0.0135123 -0.999909 -0.702248 0.00961983 -0.711868 0.702248 0.00961983 -0.711868 
0 0 -1 -0.70228 0 -0.711901 0.70228 0 -0.711901 
0 0.999909 -0.0135123 0 0 -1 -0.70228 0 -0.711901 
0.70228 0 -0.711901 0 0.0135123 -0.999909 -0.702248 0.00961983 -0.711868 
0.702248 0.00961983 -0.711868 0 0.707107 -0.707107 -0.013511 -0.013511 -0.999817 
-0.00955506 -0.707075 -0.707075 -0.57735 -0.57735 -0.57735 0 -0.0135123 -0.999909 
0 -0.707107 -0.707107 0 -0.0135123 -0.999909 0 -0.707107 -0.707107 
0.013511 -0.013511 -0.999817 0.00955506 -0.707075 -0.707075 0.999817 -0.013511 -0.013511 
-0.013511 -0.013511 -0.999817 -0.57735 -0.57735 -0.57735 -0.57735 -0.57735 -0.57735 
0 0 -1 0 0 -1 0 0 -1 
0.0135123 0 -0.999909 0.999909 0 -0.0135123 -0.013511 -0.013511 -0.999817 
-0.57735 -0.57735 -0.57735 -0.707075 -0.707075 -0.00955506 0 0 -1 
0 0 -1 0 0 -1 0 0 -1 
0.013511 0.013511 -0.999817 0.999817 0.013511 -0.013511 -0.013511 -0.013511 -0.999817 
-0.707075 -0.707075 -0.00955506 -0.707075 -0.707075 -0.00955506 0 0 -1 
0 0 -1 0 0 -1 0 0 -1 
0.013511 0.013511 -0.999817 0.57735 0.57735 -0.57735 0.57735 0.57735 -0.57735 
-0.013511 -0.013511 -0.999817 -0.707075 -0.707075 -0.00955506 -0.707075 -0.707075 -0.00955506 
0 0 -1 0 0 -1 0 0 -1 
0 0 -1 0.0135123 0 -0.999909 0.711868 0.702248 -0.00961983 
0.707075 0.707075 -0.00955506 -0.013511 -0.013511 -0.999817 -0.707075 -0.707075 -0.00955506 
-0.707075 -0.707075 -0.00955506 0 0 -1 0 0 -1 
0 0 -1 0 0 -1 0 0 -1 
0.0135123 0 -0.999909 0.999909 0 -0.0135123 -0.013511 -0.013511 -0.999817 
-0.013511 -0.999817 -0.013511 -0.707075 -0.707075 -0.00955506 0 -0.0135123 -0.999909 
0 -0.999909 -0.0135123 0 -0.0135123 -0.999909 0 -0.999909 -0.0135123 
0 -0.0135123 -0.999909 0 -0.999909 -0.0135123 0 -0.0135123 -0.999909 
-0.702248 -0.711868 -0.00961983 0 0 -1 0 0 -1 
0 0 -1 0 0 -1 0 0 -1 
0 0 -1 0.013511 0.013511 -0.999817 0.999817 0.013511 -0.013511 
-0.013511 -0.013511 -0.999817 -0.707075 -0.707075 -0.00955506 -0.707075 -0.707075 -0.00955506 
0 0 -1 0 0 -1 0 0 -1 
0 0 -1 0 0 -1 0 0 -1 
0 0 -1 0 0 -1 0 0 -1 
0 0 -1 0.013511 0.013511 -0.999817 0.57735 0.57735 -0.57735 
0.57735 0.57735 -0.57735 -0.013511 -0.013511 -0.999817 -0.013511 -0.999817 -0.013511 
-0.707075 -0.00955506 -0.707075 0 -0.0135123 -0.999909 0 -0.999909 -0.0135123 
0 -0.0135123 -0.999909 -0.702248 -0.711868 -0.00961983 0 0 -1 
0 0 -1 0 0 -1 0 0 -1 
0 0 -1 0 0 -1 0 0 -1 
0 0 -1 0 0 -1 0 0 -1 
0.013511 0.013511 -0.999817 0.707075 0.707075 -0.00955506 0.707075 0.707075 -0.00955506 
-0.0135123 0 -0.999909 -0.707107 0 -0.707107 0 0 -1 
0 0 -1 0 0 -1 0 0 -1 
0 0 -1 0 0 -1 0 0 -1 
0 0 -1 0 0 -1 0 0 -1 
0 0 -1 0.013511 0.013511 -0.999817 0.57735 0.57735 -0.57735 
0.57735 0.57735 -0.57735 -0.00961983 -0.702248 -0.711868 -0.707107 0 -0.707107 
0 -0.70228 -0.711901 0 0 -1 0 0 -1 
0 0 -1 0 0 -1 0 0 -1 
0 0 -1 0 0 -1 0 0 -1 
0 0 -1 0.013511 0.013511 -0.999817 0.707075 0.707075 -0.00955506 
0.707075 0.707075 -0.00955506 -0.711901 0 -0.70228 0.70228 0 -0.711901 
0 0 -1 0 0 -1 0 0 -1 
0 0 -1 0 0 -1 0 0 -1 
0 0 -1 0.013511 0.013511 -0.999817 0.57735 0.57735 -0.57735 
0.57735 0.57735 -0.57735 -0.707107 0 -0.707107 -0.707107 0 -0.707107 
0.574714 -0.574714 -0.582587 0 -0.70228 -0.711901 0 -0.70228 -0.711901 
0 -0.70228 -0.711901 0 0 -1 0 0 -1 
0 0 -1 0.0135123 0 -0.999909 0.711868 0.702248 -0.00961983 
0.707075 0.707075 -0.00955506 -0.711901 0 -0.70228 0.70228 0 -0.711901 
0 0 -1 0 0 -1 0.0135123 0 -0.999909 
0.999909 0 -0.0135123 -0.579951 0.572114 -0.579951 -0.999909 0 -0.0135123 
0.574714 0.574714 -0.582587 0 0.70228 -0.711901 -0.574714 0.574714 -0.582587 
0.70228 0 -0.711901 0 0 -1 0 0 -1 
0.013511 0.013511 -0.999817 0.999817 0.013511 -0.013511 -0.707075 0.00955506 -0.707075 
-0.999817 0.013511 -0.013511 0.70228 0 -0.711901 0 0 -1 
-0.70228 0 -0.711901 0.70228 0 -0.711901 0 0 -1 
0.013511 0.013511 -0.999817 0.57735 0.57735 -0.57735 0.57735 0.57735 -0.57735 
-0.013511 0.999817 -0.013511 -0.70228 0.711901 0 -0.0135123 0 -0.999909 
-0.711868 0.702248 -0.00961983 0 0 -1 -0.70228 0 -0.711901 
0.70228 0 -0.711901 0.013511 0.013511 -0.999817 0.707075 0.707075 -0.00955506 
0.707075 0.707075 -0.00955506 -0.013511 0.013511 -0.999817 -0.999817 0.013511 -0.013511 
0 0.0135123 -0.999909 -0.70228 0 -0.711901 0.707075 0.00955506 -0.707075 
0.57735 0.57735 -0.57735 0.57735 0.57735 -0.57735 -0.013511 0.999817 -0.013511 
-0.572114 0.579951 -0.579951 -0.579951 0.572114 -0.579951 -0.0135123 0 -0.999909 
0.00955506 0.707075 -0.707075 0.707075 0.707075 -0.00955506 0.707075 0.707075 -0.00955506 
0 0.0135123 -0.999909 -0.702248 0.00961983 -0.711868 0.572114 0.579951 -0.579951 
0.57735 0.57735 -0.57735 0 0.999909 -0.0135123 -0.013511 -0.013511 -0.999817 
-0.00955506 -0.707075 -0.707075 -0.707075 -0.00955506 -0.707075 0 -0.707107 -0.707107 
0 -0.707107 -0.707107 0 -0.707107 -0.707107 0 -0.707107 -0.707107 
0 -0.707107 -0.707107 0 -0.707107 -0.707107 0.00955506 -0.707075 -0.707075 
0.00955506 -0.707075 -0.707075 0.707075 -0.00955506 -0.707075 -0.579951 -0.572114 -0.579951 
-0.579951 -0.572114 -0.579951 0.711901 0 -0.70228 -0.57735 -0.57735 -0.57735 
-0.57735 -0.57735 -0.57735 -0.999817 -0.013511 -0.013511 0.711901 0 -0.70228 
-0.711901 -0.70228 0 0.711901 0 -0.70228 -0.707107 -0.707107 0 
-0.707107 -0.707107 0 0.57735 0.57735 -0.57735 0.707075 0.00955506 -0.707075 
-0.707107 -0.707107 0 -0.707107 -0.707107 0 0.582587 0.574714 -0.574714 
0.574714 0.582587 -0.574714 0.00955506 0.707075 -0.707075 -0.707107 -0.707107 0 
-0.707107 -0.707107 0 0.711901 0 -0.70228 -0.0135123 -0.999909 0 
-0.707107 -0.707107 0 0 -1 0 0 -1 0 
0 -1 0 -0.70228 -0.711901 0 0.711901 0 -0.70228 
-0.707107 -0.707107 0 -0.707107 -0.707107 0 0.57735 0.57735 -0.57735 
0.707075 0.00955506 -0.707075 -0.711868 -0.00961983 -0.702248 -0.0135123 -0.999909 0 
-0.999909 -0.0135123 0 0 -1 0 0 -1 0 
-0.70228 -0.711901 0 0.582587 0.574714 -0.574714 0.574714 0.582587 -0.574714 
0.00955506 0.707075 -0.707075 -0.707107 0 -0.707107 -0.999909 0 -0.0135123 
0.57735 0.57735 -0.57735 0.707075 0.00955506 -0.707075 -0.707107 0 -0.707107 
-0.707107 0 -0.707107 0.582587 0.574714 -0.574714 0.574714 0.582587 -0.574714 
0.00955506 0.707075 -0.707075 -0.707107 0 -0.707107 -0.707107 0 -0.707107 
0.57735 0.57735 -0.57735 0.707075 0.00955506 -0.707075 -0.707107 0 -0.707107 
-0.707107 0 -0.707107 0.582587 0.574714 -0.574714 0.574714 0.582587 -0.574714 
0.00955506 0.707075 -0.707075 -0.707075 0.00955506 -0.707075 -0.707075 0.00955506 -0.707075 
0.711901 0 -0.70228 -0.707075 0.707075 -0.00955506 -0.711901 0.70228 0 
0.711901 0 -0.70228 -0.999909 0.0135123 0 0.57735 0.57735 -0.57735 
0.707075 0.00955506 -0.707075 -0.0135123 0.999909 0 -0.70228 0.711901 0 
-0.711901 0.70228 0 0.582587 0.574714 -0.574714 0.574714 0.582587 -0.574714 
0.00955506 0.707075 -0.707075 -0.999909 0.0135123 0 0.57735 0.57735 -0.57735 
0.707075 0.00955506 -0.707075 -0.579951 0.579951 -0.572114 -0.579951 0.572114 -0.579951 
-0.579951 0.572114 -0.579951 0.582587 0.574714 -0.574714 0.574714 0.582587 -0.574714 
0.00955506 0.707075 -0.707075 -0.707075 0.00955506 -0.707075 -0.707075 0.00955506 -0.707075 
0.57735 0.57735 -0.57735 0.707075 0.00955506 -0.707075 -0.013511 0.999817 -0.013511 
0 0.711901 -0.70228 0.00955506 0.707075 -0.707075 -0.013511 -0.013511 -0.999817 
-0.013511 -0.999817 -0.013511 -0.57735 -0.57735 -0.57735 0.013511 -0.013511 -0.999817 
0.013511 -0.999817 -0.013511 0.999817 -0.013511 -0.013511 -0.013511 -0.013511 -0.999817 
-0.57735 -0.57735 -0.57735 -0.57735 -0.57735 -0.57735 0 0 -1 
0.0135123 0 -0.999909 0.999909 0 -0.0135123 -0.013511 -0.013511 -0.999817 
-0.57735 -0.57735 -0.57735 -0.999817 -0.013511 -0.013511 0 0 -1 
0 0 -1 0.0135123 0 -0.999909 0.999909 0 -0.0135123 
-0.0135123 0 -0.999909 -0.707107 0 -0.707107 0 0 -1 
0 0 -1 0.0135123 0 -0.999909 0.999909 0 -0.0135123 
-0.0135123 0 -0.999909 -0.579951 -0.572114 -0.579951 0 0 -1 
0 0 -1 0.013511 0.013511 -0.999817 0.999817 0.013511 -0.013511 
-0.013511 -0.013511 -0.999817 -0.57735 -0.57735 -0.57735 -0.57735 -0.57735 -0.57735 
0 0 -1 0 0 -1 0.013511 0.013511 -0.999817 
0.707075 0.707075 -0.00955506 0.707075 0.707075 -0.00955506 -0.013511 -0.013511 -0.999817 
-0.57735 -0.57735 -0.57735 -0.57735 -0.57735 -0.57735 0 0 -1 
0 0 -1 0.0135123 0 -0.999909 0.711868 0.702248 -0.00961983 
0.707075 0.707075 -0.00955506 -0.013511 -0.013511 -0.999817 -0.57735 -0.57735 -0.57735 
-0.57735 -0.57735 -0.57735 0 0 -1 0 0 -1 
0 0 -1 0.0135123 0 -0.999909 0.999909 0 -0.0135123 
-0.013511 -0.013511 -0.999817 -0.57735 -0.57735 -0.57735 -0.707075 -0.00955506 -0.707075 
0 0 -1 0 0 -1 0 0 -1 
0 0 -1 0.0135123 0 -0.999909 0.999909 0 -0.0135123 
-0.0135123 0 -0.999909 -0.707107 0 -0.707107 0 0 -1 
0 0 -1 0 0 -1 0 0 -1 
0.0135123 0 -0.999909 0.999909 0 -0.0135123 -0.0135123 0 -0.999909 
-0.707107 0 -0.707107 0 0 -1 0 0 -1 
0 0 -1 0 0 -1 0.0135123 0 -0.999909 
0.999909 0 -0.0135123 -0.0135123 0 -0.999909 -0.707107 0 -0.707107 
0 0 -1 0 0 -1 0 0 -1 
0 0 -1 0.0135123 0 -0.999909 0.999909 0 -0.0135123 
-0.0135123 0 -0.999909 -0.579951 -0.572114 -0.579951 0 0 -1 
0 0 -1 0 0 -1 0 0 -1 
0.0135123 0 -0.999909 0.999909 0 -0.0135123 -0.013511 -0.013511 -0.999817 
-0.57735 -0.57735 -0.57735 -0.57735 -0.57735 -0.57735 0 0 -1 
0 0 -1 0 0 -1 0 0 -1 
0 0 -1 0.0135123 0 -0.999909 0.999909 0 -0.0135123 
-0.013511 -0.013511 -0.999817 -0.57735 -0.57735 -0.57735 -0.707075 -0.00955506 -0.707075 
0 -0.70228 -0.711901 0 -0.70228 -0.711901 0 -0.70228 -0.711901 
0 -0.70228 -0.711901 0 -0.70228 -0.711901 0 0 -1 
0.0135123 0 -0.999909 0.999909 0 -0.0135123 -0.707107 0 -0.707107 
-0.707107 0 -0.707107 0.70228 0 -0.711901 0.0135123 0 -0.999909 
0.999909 0 -0.0135123 -0.579951 -0.572114 -0.579951 -0.707107 0 -0.707107 
0.70228 0 -0.711901 0.0135123 0 -0.999909 0.999909 0 -0.0135123 
-0.711901 0 -0.70228 0.70228 0 -0.711901 0.0135123 0 -0.999909 
0.999909 0 -0.0135123 -0.582587 -0.574714 -0.574714 0.70228 0 -0.711901 
0.013511 0.013511 -0.999817 0.999817 0.013511 -0.013511 -0.579951 -0.579951 -0.572114 
-0.579951 -0.579951 -0.572114 0.707075 0.00955506 -0.707075 0.707075 0.707075 -0.00955506 
0.707075 0.707075 -0.00955506 -0.579951 -0.579951 -0.572114 -0.579951 -0.579951 -0.572114 
0.574714 0.574714 -0.582587 0.00961983 0.702248 -0.711868 0.711868 0.702248 -0.00961983 
0.707075 0.707075 -0.00955506 -0.579951 -0.579951 -0.572114 -0.579951 -0.579951 -0.572114 
0.70228 0 -0.711901 0.0135123 0 -0.999909 0.999909 0 -0.0135123 