# vtk DataFile Version 3.0
vtk output
ASCII
DATASET POLYDATA
POINTS 4134 float
65 127 60.0137 65 126.014 61 64.0137 127 61 
66 127 60.0137 66 126.014 61 66.9863 127 61 
65 127.986 61 66 127.986 61 76 133 60.0137 
76 132.014 61 75.0137 133 61 77 133 60.0137 
77 132.014 61 77.9863 133 61 76 134 60.0137 
75.0137 134 61 76.9863 134 61 77 133.986 61 
76 135 60.0137 75.0137 135 61 76.9863 135 61 
76 136 60.0137 75.0137 136 61 76.9863 136 61 
76 137 60.0137 75.0137 137 61 76.9863 137 61 
76 138 60.0137 75.0137 138 61 76.9863 138 61 
76 139 60.0137 75.0137 139 61 76.9863 139 61 
76 139.986 61 72 141 60.0137 72 140.014 61 
71.0137 141 61 73 141 60.0137 73 140.014 61 
74 141 60.0137 74 140.014 61 74.9863 141 61 
72 142 60.0137 71.0137 142 61 72.9863 142 61 
73 141.986 61 74 141.986 61 72 142.986 61 
65 126 61.0137 65 125.014 62 64.0137 126 62 
66 126 61.0137 66 125.014 62 66.9863 126 62 
64.0137 127 62 66.9863 127 62 65 128 61.0137 
64.0137 128 62 66 128 61.0137 67 127.014 62 
67 128 61.0137 68 128 61.0137 68 127.014 62 
69 128 61.0137 69 127.014 62 70 128 61.0137 
70 127.014 62 70.9863 128 62 65 129 61.0137 
64.0137 129 62 66 129 61.0137 67 129 61.0137 
68 129 61.0137 69 129 61.0137 70 129 61.0137 
70.9863 129 62 65 130 61.0137 64.0137 130 62 
66 130 61.0137 67 130 61.0137 68 130 61.0137 
69 130 61.0137 70 130 61.0137 71 129.014 62 
71 130 61.0137 72 130 61.0137 72 129.014 62 
73 130 61.0137 73 129.014 62 74 130 61.0137 
74 129.014 62 74.9863 130 62 65 131 61.0137 
64.0137 131 62 66 131 61.0137 67 131 61.0137 
68 131 61.0137 69 131 61.0137 70 131 61.0137 
71 131 61.0137 72 131 61.0137 73 131 61.0137 
74 131 61.0137 74.9863 131 62 65 132 61.0137 
64.0137 132 62 66 132 61.0137 67 132 61.0137 
68 132 61.0137 69 132 61.0137 70 132 61.0137 
71 132 61.0137 72 132 61.0137 73 132 61.0137 
74 132 61.0137 75 131.014 62 75 132 61.0137 
76 132 61.0137 76 131.014 62 77 132 61.0137 
77 131.014 62 78 132 61.0137 78 131.014 62 
78.9863 132 62 65 133 61.0137 64.0137 133 62 
66 133 61.0137 67 133 61.0137 68 133 61.0137 
69 133 61.0137 70 133 61.0137 71 133 61.0137 
72 133 61.0137 73 133 61.0137 74 133 61.0137 
75 133 61.0137 78 133 61.0137 78.9863 133 62 
65 134 61.0137 64.0137 134 62 66 134 61.0137 
67 134 61.0137 68 134 61.0137 69 134 61.0137 
70 134 61.0137 71 134 61.0137 72 134 61.0137 
73 134 61.0137 74 134 61.0137 75 134 61.0137 
77 134 61.0137 78 134 61.0137 79 133.014 62 
79 134 61.0137 80 134 61.0137 80 133.014 62 
81 134 61.0137 81 133.014 62 82 134 61.0137 
82 133.014 62 82.9863 134 62 65 135 61.0137 
64.0137 135 62 66 135 61.0137 67 135 61.0137 
68 135 61.0137 69 135 61.0137 70 135 61.0137 
71 135 61.0137 72 135 61.0137 73 135 61.0137 
74 135 61.0137 75 135 61.0137 77 135 61.0137 
78 135 61.0137 79 135 61.0137 80 135 61.0137 
81 135 61.0137 81.9863 135 62 82 134.986 62 
65 136 61.0137 64.0137 136 62 66 136 61.0137 
67 136 61.0137 68 136 61.0137 69 136 61.0137 
70 136 61.0137 71 136 61.0137 72 136 61.0137 
73 136 61.0137 74 136 61.0137 75 136 61.0137 
77 136 61.0137 78 136 61.0137 79 136 61.0137 
80 136 61.0137 80.9863 136 62 81 135.986 62 
65 137 61.0137 64.0137 137 62 66 137 61.0137 
67 137 61.0137 68 137 61.0137 69 137 61.0137 
70 137 61.0137 71 137 61.0137 72 137 61.0137 
73 137 61.0137 74 137 61.0137 75 137 61.0137 
77 137 61.0137 78 137 61.0137 79 137 61.0137 
79.9863 137 62 80 136.986 62 65 138 61.0137 
64.0137 138 62 66 138 61.0137 67 138 61.0137 
68 138 61.0137 69 138 61.0137 70 138 61.0137 
71 138 61.0137 72 138 61.0137 73 138 61.0137 
74 138 61.0137 75 138 61.0137 77 138 61.0137 
78 138 61.0137 78.9863 138 62 79 137.986 62 
65 139 61.0137 64.0137 139 62 66 139 61.0137 
67 139 61.0137 68 139 61.0137 69 139 61.0137 
70 139 61.0137 71 139 61.0137 72 139 61.0137 
73 139 61.0137 74 139 61.0137 75 139 61.0137 
77 139 61.0137 77.9863 139 62 78 138.986 62 
65 139.986 62 66 139.986 62 66.0137 140 62 
67 140 61.0137 68 140 61.0137 69 140 61.0137 
70 140 61.0137 71 140 61.0137 72 140 61.0137 
73 140 61.0137 74 140 61.0137 75 140 61.0137 
76 140 61.0137 76.9863 140 62 77 139.986 62 
67 141 61.0137 66.0137 141 62 68 141 61.0137 
69 141 61.0137 70 141 61.0137 71 141 61.0137 
75 141 61.0137 75.9863 141 62 76 140.986 62 
67 141.986 62 68 141.986 62 68.0137 142 62 
69 142 61.0137 70 142 61.0137 71 142 61.0137 
73 142 61.0137 74 142 61.0137 74.9863 142 62 
75 141.986 62 69 143 61.0137 68.0137 143 62 
70 143 61.0137 71 143 61.0137 72 143 61.0137 
73 143 61.0137 73.9863 143 62 74 142.986 62 
69 143.986 62 70 143.986 62 70.0137 144 62 
71 144 61.0137 72 144 61.0137 72.9863 144 62 
73 143.986 62 71 145 61.0137 70.0137 145 62 
71.9863 145 62 72 144.986 62 71 145.986 62 
64 125 62.0137 64 124.014 63 63.0137 125 63 
65 125 62.0137 65 124.014 63 65.9863 125 63 
64 126 62.0137 63.0137 126 63 66 125.014 63 
66.9863 126 63 64 127 62.0137 63.0137 127 63 
66.9863 127 63 64 128 62.0137 63.0137 128 63 
67 127.014 63 68 127.014 63 69 127.014 63 
70 127.014 63 70.9863 128 63 64 129 62.0137 
63.0137 129 63 70.9863 129 63 64 130 62.0137 
63.0137 130 63 71 129.014 63 72 129.014 63 
73 129.014 63 74 129.014 63 74.9863 130 63 
64 131 62.0137 63.0137 131 63 74.9863 131 63 
64 132 62.0137 63.0137 132 63 75 131.014 63 
76 131.014 63 77 131.014 63 78 131.014 63 
78.9863 132 63 64 133 62.0137 63.0137 133 63 
79 132.014 63 79 133 62.0137 80 133 62.0137 
80 132.014 63 81 133 62.0137 81 132.014 63 
81.9863 133 63 64 134 62.0137 63.0137 134 63 
82 133.014 63 82.9863 134 63 64 135 62.0137 
63.0137 135 63 81.9863 135 63 82 134.986 63 
64 136 62.0137 63.0137 136 63 80.9863 136 63 
81 135.986 63 64 137 62.0137 63.0137 137 63 
79.9863 137 63 80 136.986 63 64 138 62.0137 
63.0137 138 63 78.9863 138 63 79 137.986 63 
64 139 62.0137 63.0137 139 63 77.9863 139 63 
78 138.986 63 64 139.986 63 65 139.986 63 
66 140 62.0137 65.0137 140 63 76.9863 140 63 
77 139.986 63 66 141 62.0137 65.0137 141 63 
75.9863 141 63 76 140.986 63 66 141.986 63 
67 141.986 63 68 142 62.0137 67.0137 142 63 
74.9863 142 63 75 141.986 63 68 143 62.0137 
67.0137 143 63 73.9863 143 63 74 142.986 63 
68 143.986 63 69 143.986 63 70 144 62.0137 
69.0137 144 63 72.9863 144 63 73 143.986 63 
70 144.986 63 70.0137 145 63 72 145 62.0137 
72.9863 145 63 71 145.986 63 72 145.986 63 
55 110 63.0137 55 109.014 64 54.0137 110 64 
56 110 63.0137 56 109.014 64 56.9863 110 64 
55 111 63.0137 54.0137 111 64 56 111 63.0137 
56.9863 111 64 55 111.986 64 56 111.986 64 
57 111.014 64 56.0137 112 64 57 112 63.0137 
58 112 63.0137 58 111.014 64 58.9863 112 64 
57 113 63.0137 56.0137 113 64 58 113 63.0137 
58.9863 113 64 57 114 63.0137 56.0137 114 64 
58 114 63.0137 59 113.014 64 59 114 63.0137 
60 114 63.0137 60 113.014 64 60.9863 114 64 
57 115 63.0137 56.0137 115 64 58 115 63.0137 
59 115 63.0137 60 115 63.0137 60.9863 115 64 
57 116 63.0137 56.0137 116 64 58 116 63.0137 
59 116 63.0137 60 116 63.0137 61 115.014 64 
61 116 63.0137 62 116 63.0137 62 115.014 64 
62.9863 116 64 57 117 63.0137 56.0137 117 64 
58 117 63.0137 59 117 63.0137 60 117 63.0137 
61 117 63.0137 62 117 63.0137 62.9863 117 64 
57 117.986 64 58 117.986 64 58.0137 118 64 
59 118 63.0137 60 118 63.0137 61 118 63.0137 
62 118 63.0137 63 117.014 64 63 118 63.0137 
64 118 63.0137 64 117.014 64 64.9863 118 64 
59 119 63.0137 58.0137 119 64 60 119 63.0137 
61 119 63.0137 62 119 63.0137 63 119 63.0137 
64 119 63.0137 64.9863 119 64 59 120 63.0137 
58.0137 120 64 60 120 63.0137 61 120 63.0137 
62 120 63.0137 63 120 63.0137 64 120 63.0137 
64.9863 120 64 59 121 63.0137 58.0137 121 64 
60 121 63.0137 61 121 63.0137 62 121 63.0137 
63 121 63.0137 64 121 63.0137 64.9863 121 64 
59 122 63.0137 58.0137 122 64 60 122 63.0137 
61 122 63.0137 62 122 63.0137 63 122 63.0137 
64 122 63.0137 65 121.014 64 65 122 63.0137 
66 122 63.0137 66 121.014 64 66.9863 122 64 
59 123 63.0137 58.0137 123 64 60 123 63.0137 
61 123 63.0137 62 123 63.0137 63 123 63.0137 
64 123 63.0137 65 123 63.0137 66 123 63.0137 
66.9863 123 64 59 124 63.0137 58.0137 124 64 
60 124 63.0137 61 124 63.0137 62 124 63.0137 
63 124 63.0137 64 124 63.0137 65 124 63.0137 
66 124 63.0137 66.9863 124 64 59 125 63.0137 
58.0137 125 64 60 125 63.0137 61 125 63.0137 
62 125 63.0137 63 125 63.0137 66 125 63.0137 
66.9863 125 64 59 126 63.0137 58.0137 126 64 
60 126 63.0137 61 126 63.0137 62 126 63.0137 
63 126 63.0137 66.9863 126 64 59 127 63.0137 
58.0137 127 64 60 127 63.0137 61 127 63.0137 
62 127 63.0137 63 127 63.0137 66.9863 127 64 
59 128 63.0137 58.0137 128 64 60 128 63.0137 
61 128 63.0137 62 128 63.0137 63 128 63.0137 
67 127.014 64 68 127.014 64 69 127.014 64 
70 127.014 64 70.9863 128 64 59 129 63.0137 
58.0137 129 64 60 129 63.0137 61 129 63.0137 
62 129 63.0137 63 129 63.0137 70.9863 129 64 
59 129.986 64 60 129.986 64 60.0137 130 64 
61 130 63.0137 62 130 63.0137 63 130 63.0137 
71 129.014 64 72 129.014 64 73 129.014 64 
74 129.014 64 74.9863 130 64 61 131 63.0137 
60.0137 131 64 62 131 63.0137 63 131 63.0137 
74.9863 131 64 61 132 63.0137 60.0137 132 64 
62 132 63.0137 63 132 63.0137 75 131.014 64 
76 131.014 64 77 131.014 64 78 131.014 64 
78.9863 132 64 61 133 63.0137 60.0137 133 64 
62 133 63.0137 63 133 63.0137 79 133 63.9863 
78.9863 133 64 80 133 63.9863 81 133 63.9863 
61 134 63.0137 60.0137 134 64 62 134 63.0137 
63 134 63.0137 79 133.014 64 80 133.014 64 
81 133.014 64 82 133.014 64 82.9863 134 64 
61 135 63.0137 60.0137 135 64 62 135 63.0137 
63 135 63.0137 81.9863 135 64 82 134.986 64 
61 136 63.0137 60.0137 136 64 62 136 63.0137 
63 136 63.0137 80.9863 136 64 81 135.986 64 
61 137 63.0137 60.0137 137 64 62 137 63.0137 
63 137 63.0137 79.9863 137 64 80 136.986 64 
61 137.986 64 62 137.986 64 62.0137 138 64 
63 138 63.0137 78.9863 138 64 79 137.986 64 
63 139 63.0137 62.0137 139 64 77.9863 139 64 
78 138.986 64 63 140 63.0137 62.0137 140 64 
64 140 63.0137 65 140 63.0137 76.9863 140 64 
77 139.986 64 63 141 63.0137 62.0137 141 64 
64 141 63.0137 65 141 63.0137 75.9863 141 64 
76 140.986 64 63 141.986 64 64 141.986 64 
64.0137 142 64 65 142 63.0137 66 142 63.0137 
[...]
POINT_DATA 4134
SCALARS scalars float
LOOKUP_TABLE default
1 1 1 1 1 1 1 1 1 
1 1 1 1 1 1 1 1 1 
1 1 1 1 1 1 1 1 1 
1 1 1 1 1 1 1 1 1 
1 1 1 1 1 1 1 1 1 
1 1 1 1 1 1 1 1 1 
1 1 1 1 1 1 1 1 1 
1 1 1 1 1 1 1 1 1 
1 1 1 1 1 1 1 1 1 
1 1 1 1 1 1 1 1 1 
1 1 1 1 1 1 1 1 1 
1 1 1 1 1 1 1 1 1 
1 1 1 1 1 1 1 1 1 
1 1 1 1 1 1 1 1 1 
1 1 1 1 1 1 1 1 1 
1 1 1 1 1 1 1 1 1 
1 1 1 1 1 1 1 1 1 
1 1 1 1 1 1 1 1 1 
1 1 1 1 1 1 1 1 1 
1 1 1 1 1 1 1 1 1 
1 1 1 1 1 1 1 1 1 
1 1 1 1 1 1 1 1 1 
1 1 1 1 1 1 1 1 1 
1 1 1 1 1 1 1 1 1 
1 1 1 1 1 1 1 1 1 
1 1 1 1 1 1 1 1 1 
1 1 1 1 1 1 1 1 1 
1 1 1 1 1 1 1 1 1 
1 1 1 1 1 1 1 1 1 
1 1 1 1 1 1 1 1 1 
1 1 1 1 1 1 1 1 1 
1 1 1 1 1 1 1 1 1 
1 1 1 1 1 1 1 1 1 
1 1 1 1 1 1 1 1 1 
1 1 1 1 1 1 1 1 1 
1 1 1 1 1 1 1 1 1 
1 1 1 1 1 1 1 1 1 
1 1 1 1 1 1 1 1 1 
1 1 1 1 1 1 1 1 1 
1 1 1 1 1 1 1 1 1 
1 1 1 1 1 1 1 1 1 
1 1 1 1 1 1 1 1 1 
1 1 1 1 1 1 1 1 1 
1 1 1 1 1 1 1 1 1 
1 1 1 1 1 1 1 1 1 
1 1 1 1 1 1 1 1 1 
1 1 1 1 1 1 1 1 1 
1 1 1 1 1 1 1 1 1 
1 1 1 1 1 1 1 1 1 
1 1 1 1 1 1 1 1 1 
1 1 1 1 1 1 1 1 1 
1 1 1 1 1 1 1 1 1 
1 1 1 1 1 1 1 1 1 
1 1 1 1 1 1 1 1 1 
1 1 1 1 1 1 1 1 1 
1 1 1 1 1 1 1 1 1 
1 1 1 1 1 1 1 1 1 
1 1 1 1 1 1 1 1 1 
1 1 1 1 1 1 1 1 1 
1 1 1 1 1 1 1 1 1 
1 1 1 1 1 1 1 1 1 
1 1 1 1 1 1 1 1 1 
1 1 1 1 1 1 1 1 1 
1 1 1 1 1 1 1 1 1 
1 1 1 1 1 1 1 1 1 
1 1 1 1 1 1 1 1 1 
1 1 1 1 1 1 1 1 1 
1 1 1 1 1 1 1 1 1 
1 1 1 1 1 1 1 1 1 
1 1 1 1 1 1 1 1 1 
1 1 1 1 1 1 1 1 1 
1 1 1 1 1 1 1 1 1 
1 1 1 1 1 1 1 1 1 
1 1 1 1 1 1 1 1 1 
1 1 1 1 1 1 1 1 1 
1 1 1 1 1 1 1 1 1 
1 1 1 1 1 1 1 1 1 
1 1 1 1 1 1 1 1 1 
1 1 1 1 1 1 1 1 1 
1 1 1 1 1 1 1 1 1 
1 1 1 1 1 1 1 1 1 
1 1 1 1 1 1 1 1 1 
1 1 1 1 1 1 1 1 1 
1 1 1 1 1 1 1 1 1 
1 1 1 1 1 1 1 1 1 
1 1 1 1 1 1 1 1 1 
1 1 1 1 1 1 1 1 1 
1 1 1 1 1 1 1 1 1 
1 1 1 1 1 1 1 1 1 
1 1 1 1 1 1 1 1 1 
1 1 1 1 1 1 1 1 1 
1 1 1 1 1 1 1 1 1 
1 1 1 1 1 1 1 1 1 
1 1 1 1 1 1 1 1 1 
1 1 1 1 1 1 1 1 1 
1 1 1 1 1 1 1 1 1 
1 1 1 1 1 1 1 1 1 
1 1 1 1 1 1 1 1 1 
1 1 1 1 1 1 1 1 1 
1 1 1 1 1 1 1 1 1 
1 1 1 1 1 1 1 1 1 
1 1 1 1 1 1 1 1 1 
1 1 1 1 1 1 1 1 1 
1 1 1 1 1 1 1 1 1 
1 1 1 1 1 1 1 1 1 
1 1 1 1 1 1 1 1 1 
1 1 1 1 1 1 1 1 1 
1 1 1 1 1 1 1 1 1 
1 1 1 1 1 1 1 1 1 
1 1 1 1 1 1 1 1 1 
1 1 1 1 1 1 1 1 1 
1 1 1 1 1 1 1 1 1 
1 1 1 1 1 1 1 1 1 
1 1 1 1 1 1 1 1 1 
1 1 1 1 1 1 1 1 1 
1 1 1 1 1 1 1 1 1 
1 1 1 1 1 1 1 1 1 
1 1 1 1 1 1 1 1 1 
1 1 1 1 1 1 1 1 1 
1 1 1 1 1 1 1 1 1 
1 1 1 1 1 1 1 1 1 
1 1 1 1 1 1 1 1 1 
1 1 1 1 1 1 1 1 1 
1 1 1 1 1 1 1 1 1 
1 1 1 1 1 1 1 1 1 
1 1 1 1 1 1 1 1 1 
1 1 1 1 1 1 1 1 1 
1 1 1 1 1 1 1 1 1 
1 1 1 1 1 1 1 1 1 
1 1 1 1 1 1 1 1 1 
1 1 1 1 1 1 1 1 1 
1 1 1 1 1 1 1 1 1 
1 1 1 1 1 1 1 1 1 
1 1 1 1 1 1 1 1 1 
1 1 1 1 1 1 1 1 1 
1 1 1 1 1 1 1 1 1 
1 1 1 1 1 1 1 1 1 
1 1 1 1 1 1 1 1 1 
1 1 1 1 1 1 1 1 1 
1 1 1 1 1 1 1 1 1 
1 1 1 1 1 1 1 1 1 
1 1 1 1 1 1 1 1 1 
1 1 1 1 1 1 1 1 1 
1 1 1 1 1 1 1 1 1 
1 1 1 1 1 1 1 1 1 
1 1 1 1 1 1 1 1 1 
1 1 1 1 1 1 1 1 1 
1 1 1 1 1 1 1 1 1 
1 1 1 1 1 1 1 1 1 
1 1 1 1 1 1 1 1 1 
1 1 1 1 1 1 1 1 1 
1 1 1 1 1 1 1 1 1 
1 1 1 1 1 1 1 1 1 
1 1 1 1 1 1 1 1 1 
1 1 1 1 1 1 1 1 1 
1 1 1 1 1 1 1 1 1 
1 1 1 1 1 1 1 1 1 
1 1 1 1 1 1 1 1 1 
1 1 1 1 1 1 1 1 1 
1 1 1 1 1 1 1 1 1 
1 1 1 1 1 1 1 1 1 
1 1 1 1 1 1 1 1 1 
1 1 1 1 1 1 1 1 1 
1 1 1 1 1 1 1 1 1 
1 1 1 1 1 1 1 1 1 
1 1 1 1 1 1 1 1 1 
1 1 1 1 1 1 1 1 1 
1 1 1 1 1 1 1 1 1 
1 1 1 1 1 1 1 1 1 
1 1 1 1 1 1 1 1 1 
1 1 1 1 1 1 1 1 1 
1 1 1 1 1 1 1 1 1 
1 1 1 1 1 1 1 1 1 
1 1 1 1 1 1 1 1 1 
1 1 1 1 1 1 1 1 1 
1 1 1 1 1 1 1 1 1 
1 1 1 1 1 1 1 1 1 
1 1 1 1 1 1 1 1 1 
1 1 1 1 1 1 1 1 1 
1 1 1 1 1 1 1 1 1 
1 1 1 1 1 1 1 1 1 
1 1 1 1 1 1 1 1 1 
1 1 1 1 1 1 1 1 1 
1 1 1 1 1 1 1 1 1 
1 1 1 1 1 1 1 1 1 
1 1 1 1 1 1 1 1 1 
1 1 1 1 1 1 1 1 1 
1 1 1 1 1 1 1 1 1 
1 1 1 1 1 1 1 1 1 
1 1 1 1 1 1 1 1 1 
1 1 1 1 1 1 1 1 1 
1 1 1 1 1 1 1 1 1 
1 1 1 1 1 1 1 1 1 
1 1 1 1 1 1 1 1 1 
1 1 1 1 1 1 1 1 1 
1 1 1 1 1 1 1 1 1 
1 1 1 1 1 1 1 1 1 
1 1 1 1 1 1 1 1 1 
1 1 1 1 1 1 1 1 1 
1 1 1 1 1 1 1 1 1 
1 1 1 1 1 1 1 1 1 
1 1 1 1 1 1 1 1 1 
1 1 1 1 1 1 1 1 1 
1 1 1 1 1 1 1 1 1 
1 1 1 1 1 1 1 1 1 
1 1 1 1 1 1 1 1 1 
1 1 1 1 1 1 1 1 1 
1 1 1 1 1 1 1 1 1 
1 1 1 1 1 1 1 1 1 
1 1 1 1 1 1 1 1 1 
1 1 1 1 1 1 1 1 1 
1 1 1 1 1 1 1 1 1 
1 1 1 1 1 1 1 1 1 
1 1 1 1 1 1 1 1 1 
1 1 1 1 1 1 1 1 1 
1 1 1 1 1 1 1 1 1 
1 1 1 1 1 1 1 1 1 
1 1 1 1 1 1 1 1 1 
1 1 1 1 1 1 1 1 1 
1 1 1 1 1 1 1 1 1 
1 1 1 1 1 1 1 1 1 
1 1 1 1 1 1 1 1 1 
1 1 1 1 1 1 1 1 1 
1 1 1 1 1 1 1 1 1 
1 1 1 1 1 1 1 1 1 
1 1 1 1 1 1 1 1 1 
1 1 1 1 1 1 1 1 1 
1 1 1 1 1 1 1 1 1 
1 1 1 1 1 1 1 1 1 
1 1 1 1 1 1 1 1 1 
1 1 1 1 1 1 1 1 1 
1 1 1 1 1 1 1 1 1 
1 1 1 1 1 1 1 1 1 
1 1 1 1 1 1 1 1 1 
1 1 1 1 1 1 1 1 1 
1 1 1 1 1 1 1 1 1 
1 1 1 1 1 1 1 1 1 
1 1 1 1 1 1 1 1 1 
1 1 1 1 1 1 1 1 1 
1 1 1 1 1 1 1 1 1 
1 1 1 1 1 1 1 1 1 
1 1 1 1 1 1 1 1 1 
1 1 1 1 1 1 1 1 1 
1 1 1 1 1 1 1 1 1 
1 1 1 1 1 1 1 1 1 
1 1 1 1 1 1 1 1 1 
1 1 1 1 1 1 1 1 1 
1 1 1 1 1 1 1 1 1 
1 1 1 1 1 1 1 1 1 
1 1 1 1 1 1 1 1 1 
1 1 1 1 1 1 1 1 1 
1 1 1 1 1 1 1 1 1 
1 1 1 1 1 1 1 1 1 
1 1 1 1 1 1 1 1 1 
1 1 1 1 1 1 1 1 1 
1 1 1 1 1 1 1 1 1 
1 1 1 1 1 1 1 1 1 
1 1 1 1 1 1 1 1 1 
1 1 1 1 1 1 1 1 1 
1 1 1 1 1 1 1 1 1 
1 1 1 1 1 1 1 1 1 
1 1 1 1 1 1 1 1 1 
1 1 1 1 1 1 1 1 1 
1 1 1 1 1 1 1 1 1 
1 1 1 1 1 1 1 1 1 
1 1 1 1 1 1 1 1 1 
1 1 1 1 1 1 1 1 1 
1 1 1 1 1 1 1 1 1 
1 1 1 1 1 1 1 1 1 
1 1 1 1 1 1 1 1 1 
1 1 1 1 1 1 1 1 1 
1 1 1 1 1 1 1 1 1 
1 1 1 1 1 1 1 1 1 
1 1 1 1 1 1 1 1 1 
1 1 1 1 1 1 1 1 1 
1 1 1 1 1 1 1 1 1 
1 1 1 1 1 1 1 1 1 
1 1 1 1 1 1 1 1 1 
1 1 1 1 1 1 1 1 1 
1 1 1 1 1 1 1 1 1 
1 1 1 1 1 1 1 1 1 
1 1 1 1 1 1 1 1 1 
1 1 1 1 1 1 1 1 1 
1 1 1 1 1 1 1 1 1 
1 1 1 1 1 1 1 1 1 
1 1 1 1 1 1 1 1 1 
1 1 1 1 1 1 1 1 1 
1 1 1 1 1 1 1 1 1 
1 1 1 1 1 1 1 1 1 
1 1 1 1 1 1 1 1 1 
1 1 1 1 1 1 1 1 1 
1 1 1 1 1 1 1 1 1 
1 1 1 1 1 1 1 1 1 
1 1 1 1 1 1 1 1 1 
1 1 1 1 1 1 1 1 1 
1 1 1 1 1 1 1 1 1 
1 1 1 1 1 1 1 1 1 
1 1 1 1 1 1 1 1 1 
1 1 1 1 1 1 1 1 1 
1 1 1 1 1 1 1 1 1 
1 1 1 1 1 1 1 1 1 
1 1 1 1 1 1 1 1 1 
1 1 1 1 1 1 1 1 1 
1 1 1 1 1 1 1 1 1 
1 1 1 1 1 1 1 1 1 
1 1 1 1 1 1 1 1 1 
1 1 1 1 1 1 1 1 1 
1 1 1 1 1 1 1 1 1 
1 1 1 1 1 1 1 1 1 
1 1 1 1 1 1 1 1 1 
1 1 1 1 1 1 1 1 1 
1 1 1 1 1 1 1 1 1 
1 1 1 1 1 1 1 1 1 
1 1 1 1 1 1 1 1 1 
1 1 1 1 1 1 1 1 1 
1 1 1 1 1 1 1 1 1 
1 1 1 1 1 1 1 1 1 
1 1 1 1 1 1 1 1 1 
1 1 1 1 1 1 1 1 1 
1 1 1 1 1 1 1 1 1 
1 1 1 1 1 1 1 1 1 
1 1 1 1 1 1 1 1 1 
1 1 1 1 1 1 1 1 1 
1 1 1 1 1 1 1 1 1 
1 1 1 1 1 1 1 1 1 
1 1 1 1 1 1 1 1 1 
1 1 1 1 1 1 1 1 1 
1 1 1 1 1 1 1 1 1 
1 1 1 1 1 1 1 1 1 
1 1 1 1 1 1 1 1 1 
1 1 1 1 1 1 1 1 1 
1 1 1 1 1 1 1 1 1 
1 1 1 1 1 1 1 1 1 
1 1 1 1 1 1 1 1 1 
1 1 1 1 1 1 1 1 1 
1 1 1 1 1 1 1 1 1 
1 1 1 1 1 1 1 1 1 
1 1 1 1 1 1 1 1 1 
1 1 1 1 1 1 1 1 1 
1 1 1 1 1 1 1 1 1 
1 1 1 1 1 1 1 1 1 
1 1 1 1 1 1 1 1 1 
1 1 1 1 1 1 1 1 1 
1 1 1 1 1 1 1 1 1 
1 1 1 1 1 1 1 1 1 
1 1 1 1 1 1 1 1 1 
1 1 1 1 1 1 1 1 1 
1 1 1 1 1 1 1 1 1 
1 1 1 1 1 1 1 1 1 
1 1 1 1 1 1 1 1 1 
1 1 1 1 1 1 1 1 1 
1 1 1 1 1 1 1 1 1 
1 1 1 1 1 1 1 1 1 
1 1 1 1 1 1 1 1 1 
1 1 1 1 1 1 1 1 1 
1 1 1 1 1 1 1 1 1 
1 1 1 1 1 1 1 1 1 
1 1 1 1 1 1 1 1 1 
1 1 1 1 1 1 1 1 1 
1 1 1 1 1 1 1 1 1 
1 1 1 1 1 1 1 1 1 
1 1 1 1 1 1 1 1 1 
1 1 1 1 1 1 1 1 1 
1 1 1 1 1 1 1 1 1 
1 1 1 1 1 1 1 1 1 
1 1 1 1 1 1 1 1 1 
1 1 1 1 1 1 1 1 1 
1 1 1 1 1 1 1 1 1 
1 1 1 1 1 1 1 1 1 
1 1 1 1 1 1 1 1 1 
1 1 1 1 1 1 1 1 1 
1 1 1 1 1 1 1 1 1 
1 1 1 1 1 1 1 1 1 
1 1 1 1 1 1 1 1 1 
1 1 1 1 1 1 1 1 1 
1 1 1 1 1 1 1 1 1 
1 1 1 1 1 1 1 1 1 
1 1 1 1 1 1 1 1 1 
1 1 1 1 1 1 1 1 1 
1 1 1 1 1 1 1 1 1 
1 1 1 1 1 1 1 1 1 
1 1 1 1 1 1 1 1 1 
1 1 1 1 1 1 1 1 1 
1 1 1 1 1 1 1 1 1 
1 1 1 1 1 1 1 1 1 
1 1 1 1 1 1 1 1 1 
1 1 1 1 1 1 1 1 1 
1 1 1 1 1 1 1 1 1 
1 1 1 1 1 1 1 1 1 
1 1 1 1 1 1 1 1 1 
1 1 1 1 1 1 1 1 1 
1 1 1 1 1 1 1 1 1 
1 1 1 1 1 1 1 1 1 
1 1 1 1 1 1 1 1 1 
1 1 1 1 1 1 1 1 1 
1 1 1 1 1 1 1 1 1 
1 1 1 1 1 1 1 1 1 
1 1 1 1 1 1 1 1 1 
1 1 1 1 1 1 1 1 1 
1 1 1 1 1 1 1 1 1 
1 1 1 1 1 1 1 1 1 
1 1 1 1 1 1 1 1 1 
1 1 1 1 1 1 1 1 1 
1 1 1 1 1 1 1 1 1 
1 1 1 1 1 1 1 1 1 
1 1 1 1 1 1 1 1 1 
1 1 1 1 1 1 1 1 1 
1 1 1 1 1 1 1 1 1 
1 1 1 1 1 1 1 1 1 
1 1 1 1 1 1 1 1 1 
1 1 1 1 1 1 1 1 1 
1 1 1 1 1 1 1 1 1 
1 1 1 1 1 1 1 1 1 
1 1 1 1 1 1 1 1 1 
1 1 1 1 1 1 1 1 1 
1 1 1 1 1 1 1 1 1 
1 1 1 1 1 1 1 1 1 
1 1 1 1 1 1 1 1 1 
1 1 1 1 1 1 1 1 1 
1 1 1 1 1 1 1 1 1 
1 1 1 1 1 1 1 1 1 
1 1 1 1 1 1 1 1 1 
1 1 1 1 1 1 1 1 1 
1 1 1 1 1 1 1 1 1 
1 1 1 1 1 1 1 1 1 
1 1 1 1 1 1 1 1 1 
1 1 1 1 1 1 1 1 1 
1 1 1 1 1 1 1 1 1 
1 1 1 1 1 1 1 1 1 
1 1 1 1 1 1 1 1 1 
1 1 1 1 1 1 1 1 1 
1 1 1 1 1 1 1 1 1 
1 1 1 1 1 1 1 1 1 
1 1 1 1 1 1 1 1 1 
1 1 1 1 1 1 1 1 1 
1 1 1 1 1 1 1 1 1 
1 1 1 1 1 1 1 1 1 
1 1 1 1 1 1 1 1 1 
1 1 1 1 1 1 1 1 1 
1 1 1 1 1 1 1 1 1 
1 1 1 1 1 1 1 1 1 
1 1 1 1 1 1 1 1 1 
1 1 1 1 1 1 1 1 1 
1 1 1 1 1 1 1 1 1 
1 1 1 1 1 1 1 1 1 
1 1 1 1 1 1 1 1 1 
1 1 1 1 1 1 1 1 1 
1 1 1 1 1 1 1 1 1 
1 1 1 1 1 1 1 1 1 
1 1 1 1 1 1 1 1 1 
1 1 1 1 1 1 1 1 1 
1 1 1 1 1 1 1 1 1 
1 1 1 1 1 1 1 1 1 
1 1 1 1 1 1 1 1 1 
1 1 1 1 1 1 1 1 1 
1 1 1 1 1 1 1 1 1 
1 1 1 1 1 1 1 1 1 
1 1 1 1 1 1 1 1 1 
1 1 1 1 1 1 1 1 1 
1 1 1 
NORMALS normals float
-0.0136973 0 -0.999906 -0.0097525 -0.70218 -0.711933 -0.999906 0 -0.0136973 
0.0136973 0 -0.999906 0.0097525 -0.70218 -0.711933 0.999906 0 -0.0136973 
-0.0097525 0.70218 -0.711933 0.0097525 0.70218 -0.711933 -0.0136961 -0.0136961 -0.999812 
-0.00968594 -0.707074 -0.707074 -0.707074 -0.00968594 -0.707074 0.0136973 0 -0.999906 
0.0097525 -0.70218 -0.711933 0.707107 0 -0.707107 0 0 -1 
-0.702213 0 -0.711966 0.574677 0.574677 -0.582659 0.579986 0.572041 -0.579986 
0 0 -1 -0.702213 0 -0.711966 0.702213 0 -0.711966 
0 0 -1 -0.702213 0 -0.711966 0.702213 0 -0.711966 
0 0 -1 -0.702213 0 -0.711966 0.702213 0 -0.711966 
0 0 -1 -0.702213 0 -0.711966 0.702213 0 -0.711966 
0 0.0136973 -0.999906 -0.70218 0.0097525 -0.711933 0.70218 0.0097525 -0.711933 
0 0.707107 -0.707107 -0.0136961 -0.0136961 -0.999812 -0.00968594 -0.707074 -0.707074 
-0.707074 -0.00968594 -0.707074 0 0 -1 0 -0.702213 -0.711966 
0.0136973 0 -0.999906 0.0097525 -0.70218 -0.711933 0.707107 0 -0.707107 
0 0.0136973 -0.999906 -0.70218 0.0097525 -0.711933 0.572041 0.579986 -0.579986 
0.574677 0.574677 -0.582659 0.0097525 0.70218 -0.711933 0 0.707107 -0.707107 
-0.00968594 -0.707074 -0.707074 -0.00968594 -0.707074 -0.707074 -0.707074 -0.00968594 -0.707074 
0.00968594 -0.707074 -0.707074 0.0136961 -0.999812 -0.0136961 0.999812 -0.0136961 -0.0136961 
-0.711966 0 -0.702213 0.711966 -0.702213 0 -0.0097525 0.70218 -0.711933 
-0.707107 0 -0.707107 0 0.702213 -0.711966 0.70218 -0.711933 -0.0097525 
0 -0.0136973 -0.999906 0 -0.0136973 -0.999906 0 -0.999906 -0.0136973 
0 -0.0136973 -0.999906 0 -0.999906 -0.0136973 0.0136961 -0.0136961 -0.999812 
0.0136961 -0.999812 -0.0136961 0.999812 -0.0136961 -0.0136961 -0.0136973 0 -0.999906 
-0.707107 0 -0.707107 0 0 -1 0 0 -1 
0 0 -1 0 0 -1 0.0136973 0 -0.999906 
0.711933 -0.70218 -0.0097525 -0.0136973 0 -0.999906 -0.707107 0 -0.707107 
0 0 -1 0 0 -1 0 0 -1 
0 0 -1 0 0 -1 0.70218 -0.711933 -0.0097525 
0 -0.0136973 -0.999906 0 -0.0136973 -0.999906 0 -0.999906 -0.0136973 
0 -0.0136973 -0.999906 0 -0.999906 -0.0136973 0.0136961 -0.0136961 -0.999812 
0.0136961 -0.999812 -0.0136961 0.999812 -0.0136961 -0.0136961 -0.0136973 0 -0.999906 
-0.707107 0 -0.707107 0 0 -1 0 0 -1 
0 0 -1 0 0 -1 0 0 -1 
0 0 -1 0 0 -1 0 0 -1 
0.0136973 0 -0.999906 0.711933 -0.70218 -0.0097525 -0.0136973 0 -0.999906 
-0.707107 0 -0.707107 0 0 -1 0 0 -1 
0 0 -1 0 0 -1 0 0 -1 
0 0 -1 0 0 -1 0 0 -1 
0 0 -1 0.70218 -0.711933 -0.0097525 0 -0.0136973 -0.999906 
0 -0.707107 -0.707107 0 -0.999906 -0.0136973 0 -0.707107 -0.707107 
0 -0.999906 -0.0136973 0.0136961 -0.0136961 -0.999812 0.0136961 -0.999812 -0.0136961 
0.999812 -0.0136961 -0.0136961 -0.0136973 0 -0.999906 -0.707107 0 -0.707107 
0 0 -1 0 0 -1 0 0 -1 
0 0 -1 0 0 -1 0 0 -1 
0 0 -1 0 0 -1 0 0 -1 
-0.702213 0 -0.711966 0.707107 0 -0.707107 0.579986 -0.572041 -0.579986 
-0.0136973 0 -0.999906 -0.707107 0 -0.707107 0 0 -1 
0 0 -1 0 0 -1 0 0 -1 
0 0 -1 0 0 -1 0 0 -1 
0 0 -1 0 0 -1 -0.702213 0 -0.711966 
0.574677 0.574677 -0.582659 0 0 -1 0.572041 -0.579986 -0.579986 
0 -0.0136973 -0.999906 0 -0.0136973 -0.999906 0 -0.707107 -0.707107 
0 -0.0136973 -0.999906 0 -0.707107 -0.707107 0.0136973 0 -0.999906 
0.0138862 -0.999807 -0.0138862 0.999906 0 -0.0136973 -0.0136973 0 -0.999906 
-0.707107 0 -0.707107 0 0 -1 0 0 -1 
0 0 -1 0 0 -1 0 0 -1 
0 0 -1 0 0 -1 0 0 -1 
0 0 -1 -0.702213 0 -0.711966 0.702213 0 -0.711966 
0 0 -1 0 0 -1 0 0 -1 
0.0136961 0.0136961 -0.999812 0.707074 0.707074 -0.00968594 0.711933 0.70218 -0.0097525 
-0.0136973 0 -0.999906 -0.707107 0 -0.707107 0 0 -1 
0 0 -1 0 0 -1 0 0 -1 
0 0 -1 0 0 -1 0 0 -1 
0 0 -1 0 0 -1 -0.702213 0 -0.711966 
0.702213 0 -0.711966 0 0 -1 0 0 -1 
0.0136961 0.0136961 -0.999812 0.707074 0.707074 -0.00968594 0.707074 0.707074 -0.00968594 
-0.0136973 0 -0.999906 -0.707107 0 -0.707107 0 0 -1 
0 0 -1 0 0 -1 0 0 -1 
0 0 -1 0 0 -1 0 0 -1 
0 0 -1 0 0 -1 -0.702213 0 -0.711966 
0.702213 0 -0.711966 0 0 -1 0.0136961 0.0136961 -0.999812 
0.707074 0.707074 -0.00968594 0.707074 0.707074 -0.00968594 -0.0136973 0 -0.999906 
-0.707107 0 -0.707107 0 0 -1 0 0 -1 
0 0 -1 0 0 -1 0 0 -1 
0 0 -1 0 0 -1 0 0 -1 
0 0 -1 -0.702213 0 -0.711966 0.702213 0 -0.711966 
0.0136961 0.0136961 -0.999812 0.707074 0.707074 -0.00968594 0.707074 0.707074 -0.00968594 
-0.0136961 0.0136961 -0.999812 -0.707074 0.00968594 -0.707074 0 0.0136973 -0.999906 
0 0 -1 0 0 -1 0 0 -1 
0 0 -1 0 0 -1 0 0 -1 
0 0 -1 0 0 -1 -0.702213 0 -0.711966 
0.707074 0.00968594 -0.707074 0.707074 0.707074 -0.00968594 0.707074 0.707074 -0.00968594 
-0.0136961 0.999812 -0.0136961 -0.572041 0.579986 -0.579986 -0.579986 0.572041 -0.579986 
-0.0136973 0 -0.999906 0 0 -1 0 0 -1 
0 0 -1 0 0 -1 0 -0.702213 -0.711966 
0 -0.702213 -0.711966 0 -0.702213 -0.711966 0 0 -1 
0.00968594 0.707074 -0.707074 0.707074 0.707074 -0.00968594 0.707074 0.707074 -0.00968594 
-0.0136961 0.0136961 -0.999812 -0.707074 0.00968594 -0.707074 0 0.0136973 -0.999906 
0 0 -1 0 0 -1 -0.702213 0 -0.711966 
0.707074 0.00968594 -0.707074 0.707074 0.707074 -0.00968594 0.707074 0.707074 -0.00968594 
-0.0136961 0.999812 -0.0136961 -0.572041 0.579986 -0.579986 -0.579986 0.572041 -0.579986 
-0.0136973 0 -0.999906 0 0 -1 -0.702213 0 -0.711966 
0.574677 0.574677 -0.582659 0.00968594 0.707074 -0.707074 0.707074 0.707074 -0.00968594 
0.707074 0.707074 -0.00968594 -0.0136961 0.0136961 -0.999812 -0.707074 0.00968594 -0.707074 
0 0.0136973 -0.999906 0 0 -1 0 0.702213 -0.711966 
0.0136961 0.0136961 -0.999812 0.707074 0.707074 -0.00968594 0.707074 0.707074 -0.00968594 
-0.0136961 0.999812 -0.0136961 -0.572041 0.579986 -0.579986 -0.579986 0.572041 -0.579986 
-0.0136973 0 -0.999906 0.0136961 0.0136961 -0.999812 0.707074 0.707074 -0.00968594 
0.707074 0.707074 -0.00968594 0 0.0136973 -0.999906 -0.999807 0.0138862 -0.0138862 
0.572041 0.579986 -0.579986 0.57735 0.57735 -0.57735 0 0.999906 -0.0136973 
-0.0136961 -0.0136961 -0.999812 -0.00968594 -0.707074 -0.707074 -0.707074 -0.00968594 -0.707074 
0.00968594 -0.707074 -0.707074 0.00968594 -0.707074 -0.707074 0.57735 -0.57735 -0.57735 
-0.707107 0 -0.707107 -0.707107 0 -0.707107 0.579986 -0.579986 -0.572041 
0.999906 -0.0136973 0 -0.707107 0 -0.707107 -0.707107 0 -0.707107 
0.711966 -0.702213 0 -0.707107 0 -0.707107 -0.707107 0 -0.707107 
0.702213 -0.711966 0 0 -1 0 0 -1 0 
0.0136973 -0.999906 0 0.999906 -0.0136973 0 -0.707107 0 -0.707107 
-0.707107 0 -0.707107 0.711966 -0.702213 0 -0.707107 0 -0.707107 
-0.707107 0 -0.707107 0.702213 -0.711966 0 0 -1 0 
0 -1 0 0.0136973 -0.999906 0 0.999906 -0.0136973 0 
-0.707107 0 -0.707107 -0.707107 0 -0.707107 0.711966 -0.702213 0 
-0.707107 0 -0.707107 -0.707107 0 -0.707107 0.702213 -0.711966 0 
0 -1 0 0 -1 0 0.0136973 -0.999906 0 
0.707107 -0.707107 0 -0.707107 0 -0.707107 -0.707107 0 -0.707107 
0.702213 -0.711966 0 0.574677 -0.582659 -0.574677 0 -0.711966 -0.702213 
0 -1 0 0.0097525 -0.711933 -0.70218 0.0136973 -0.999906 0 
0.707107 -0.707107 0 -0.707107 0 -0.707107 -0.707107 0 -0.707107 
0.711966 -0.702213 0 1 0 0 -0.707107 0 -0.707107 
-0.707107 0 -0.707107 0.707107 0.707107 0 0.711966 0.702213 0 
-0.707107 0 -0.707107 -0.707107 0 -0.707107 0.707107 0.707107 0 
0.707107 0.707107 0 -0.707107 0 -0.707107 -0.707107 0 -0.707107 
0.707107 0.707107 0 0.707107 0.707107 0 -0.707107 0 -0.707107 
-0.707107 0 -0.707107 0.707107 0.707107 0 0.707107 0.707107 0 
-0.707074 0.00968594 -0.707074 -0.707074 0.00968594 -0.707074 0.707107 0.707107 0 
0.707107 0.707107 0 -0.00968594 0.707074 -0.707074 -0.574677 0.582659 -0.574677 
-0.579986 0.572041 -0.579986 -0.579986 0.572041 -0.579986 0.707107 0.707107 0 
0.707107 0.707107 0 -0.707074 0.00968594 -0.707074 -0.707074 0.00968594 -0.707074 
0.707107 0.707107 0 0.707107 0.707107 0 -0.00968594 0.707074 -0.707074 
-0.574677 0.582659 -0.574677 -0.579986 0.572041 -0.579986 -0.579986 0.572041 -0.579986 
0.707107 0.707107 0 0.707107 0.707107 0 -0.707074 0.00968594 -0.707074 
-0.707074 0.00968594 -0.707074 0.579986 0.579986 -0.572041 0.579986 0.579986 -0.572041 
-0.00968594 0.707074 -0.707074 -0.574677 0.582659 -0.574677 -0.57735 0.57735 -0.57735 
-0.57735 0.57735 -0.57735 0.582659 0.574677 -0.574677 0.579986 0.579986 -0.572041 
-0.57735 0.57735 -0.57735 -0.579986 0.579986 -0.572041 0.57735 0.57735 -0.57735 
0.707074 0.00968594 -0.707074 -0.0097525 0.711933 -0.70218 0.00968594 0.707074 -0.707074 
-0.0136961 -0.0136961 -0.999812 -0.0136961 -0.999812 -0.0136961 -0.999812 -0.0136961 -0.0136961 
0.0136961 -0.0136961 -0.999812 0.0136961 -0.999812 -0.0136961 0.999812 -0.0136961 -0.0136961 
-0.0136961 0.0136961 -0.999812 -0.999812 0.0136961 -0.0136961 0.0136961 0.0136961 -0.999812 
0.582622 -0.56666 -0.582622 -0.0136961 0.999812 -0.0136961 -0.697185 0.716824 -0.00981951 
0.56666 -0.582622 -0.582622 -0.716824 0.697185 -0.00981951 -0.0136961 -0.0136961 -0.999812 
0.0136961 -0.0136961 -0.999812 0.0136961 -0.999812 -0.0136961 0.999812 -0.0136961 -0.0136961 
-0.0136973 0 -0.999906 -0.999906 0 -0.0136973 0.0136973 0 -0.999906 
0.579986 -0.572041 -0.579986 -0.0136973 0 -0.999906 -0.999906 0 -0.0136973 
0 0 -1 0.572041 -0.579986 -0.579986 0 -0.0136973 -0.999906 
0.0136961 -0.0136961 -0.999812 0.0136961 -0.999812 -0.0136961 0.999812 -0.0136961 -0.0136961 
-0.0136973 0 -0.999906 -0.999906 0 -0.0136973 0 0 -1 
0 0 -1 0.0136973 0 -0.999906 0.579986 -0.572041 -0.579986 
-0.0136973 0 -0.999906 -0.999906 0 -0.0136973 0 0 -1 
0 0 -1 0 0 -1 0.572041 -0.579986 -0.579986 
0 -0.0136973 -0.999906 0.0136961 -0.0136961 -0.999812 0.0136961 -0.999812 -0.0136961 
0.999812 -0.0136961 -0.0136961 -0.0136961 0.0136961 -0.999812 -0.999812 0.0136961 -0.0136961 
0 0.0136973 -0.999906 0 0 -1 0 0 -1 
0 0 -1 0.0136973 0 -0.999906 0.579986 -0.572041 -0.579986 
-0.0136961 0.999812 -0.0136961 -0.572041 0.579986 -0.579986 -0.579986 0.572041 -0.579986 
-0.0136973 0 -0.999906 0 0 -1 0 0 -1 
0 0 -1 0.572041 -0.579986 -0.579986 0 -0.0136973 -0.999906 
0.0136961 -0.0136961 -0.999812 0.0136961 -0.999812 -0.0136961 0.999812 -0.0136961 -0.0136961 
-0.0136973 0 -0.999906 -0.707107 0 -0.707107 0 0 -1 
0 0 -1 0 0 -1 0 0 -1 
0.0136973 0 -0.999906 0.999906 0 -0.0136973 -0.0136973 0 -0.999906 
-0.707107 0 -0.707107 0 0 -1 0 0 -1 
0 0 -1 0 0 -1 0.0136973 0 -0.999906 
0.999906 0 -0.0136973 -0.0136973 0 -0.999906 -0.707107 0 -0.707107 
0 0 -1 0 0 -1 0 0 -1 
0 0 -1 0.0136973 0 -0.999906 0.711933 -0.70218 -0.0097525 
-0.0136973 0 -0.999906 -0.707107 0 -0.707107 0 0 -1 
0 0 -1 0 0 -1 0 0 -1 
0 0 -1 0.70218 -0.711933 -0.0097525 0 -0.0136973 -0.999906 
0.0138862 -0.0138862 -0.999807 0.0136973 -0.999906 0 0.999906 -0.0136973 0 
-0.0136973 0 -0.999906 -0.707107 0 -0.707107 0 0 -1 
0 0 -1 0 0 -1 0 0 -1 
0 0 -1 0 0 -1 0.0136973 0 -0.999906 
0.999906 0 -0.0136973 -0.0136973 0 -0.999906 -0.707107 0 -0.707107 
0 0 -1 0 0 -1 0 0 -1 
0 0 -1 0 -0.702213 -0.711966 0 -0.702213 -0.711966 
0.0136973 0 -0.999906 0.999906 0 -0.0136973 -0.0136973 0 -0.999906 
-0.707107 0 -0.707107 0 0 -1 0 0 -1 
0 0 -1 -0.702213 0 -0.711966 0.579986 -0.572041 -0.579986 
0.999906 0 -0.0136973 -0.0136973 0 -0.999906 -0.707107 0 -0.707107 
0 0 -1 0 0 -1 0 0 -1 
-0.702213 0 -0.711966 1 0 0 -0.0136973 0 -0.999906 
-0.707107 0 -0.707107 0 0 -1 0 0 -1 
0 0 -1 -0.702213 0 -0.711966 0.582659 -0.574677 -0.574677 
-0.0136973 0 -0.999906 -0.707107 0 -0.707107 0 0 -1 