# vtk DataFile Version 3.0
vtk output
ASCII
DATASET POLYDATA
POINTS 3518 float
81 146 45.037 81 145.037 46 80.037 146 46 
82 146 45.037 82 145.037 46 83 146 45.037 
83 145.037 46 84 146 45.037 84 145.037 46 
85 146 45.037 85 145.037 46 86 146 45.037 
86 145.037 46 87 146 45.037 87 145.037 46 
88 146 45.037 88 145.037 46 88.963 146 46 
81 147 45.037 80.037 147 46 82 147 45.037 
83 147 45.037 84 147 45.037 85 147 45.037 
86 147 45.037 87 147 45.037 88 147 45.037 
88.963 147 46 81 148 45.037 80.037 148 46 
82 148 45.037 83 148 45.037 84 148 45.037 
85 148 45.037 86 148 45.037 87 148 45.037 
88 148 45.037 89 147.037 46 89 148 45.037 
90 148 45.037 90 147.037 46 90.963 148 46 
81 149 45.037 80.037 149 46 82 149 45.037 
83 149 45.037 84 149 45.037 85 149 45.037 
86 149 45.037 87 149 45.037 88 149 45.037 
89 149 45.037 90 149 45.037 90.963 149 46 
81 150 45.037 80.037 150 46 82 150 45.037 
83 150 45.037 84 150 45.037 85 150 45.037 
86 150 45.037 87 150 45.037 88 150 45.037 
89 150 45.037 90 150 45.037 90.963 150 46 
81 151 45.037 80.037 151 46 82 151 45.037 
83 151 45.037 84 151 45.037 85 151 45.037 
86 151 45.037 87 151 45.037 88 151 45.037 
89 151 45.037 90 151 45.037 90.963 151 46 
81 151.963 46 82 151.963 46 82.037 152 46 
83 152 45.037 84 152 45.037 85 152 45.037 
86 152 45.037 87 152 45.037 88 152 45.037 
89 152 45.037 90 152 45.037 90.963 152 46 
83 153 45.037 82.037 153 46 84 153 45.037 
85 153 45.037 86 153 45.037 87 153 45.037 
88 153 45.037 89 153 45.037 90 153 45.037 
90.963 153 46 83 154 45.037 82.037 154 46 
84 154 45.037 85 154 45.037 86 154 45.037 
87 154 45.037 88 154 45.037 89 154 45.037 
90 154 45.037 90.963 154 46 83 155 45.037 
82.037 155 46 84 155 45.037 85 155 45.037 
86 155 45.037 87 155 45.037 88 155 45.037 
89 155 45.037 90 155 45.037 90.963 155 46 
83 156 45.037 82.037 156 46 84 156 45.037 
85 156 45.037 86 156 45.037 87 156 45.037 
88 156 45.037 89 156 45.037 90 156 45.037 
90.963 156 46 83 157 45.037 82.037 157 46 
84 157 45.037 85 157 45.037 86 157 45.037 
87 157 45.037 88 157 45.037 89 157 45.037 
90 157 45.037 90.963 157 46 83 158 45.037 
82.037 158 46 84 158 45.037 85 158 45.037 
86 158 45.037 87 158 45.037 88 158 45.037 
89 158 45.037 90 158 45.037 90.963 158 46 
83 159 45.037 82.037 159 46 84 159 45.037 
85 159 45.037 86 159 45.037 87 159 45.037 
88 159 45.037 89 159 45.037 90 159 45.037 
90.963 159 46 83 160 45.037 82.037 160 46 
84 160 45.037 85 160 45.037 86 160 45.037 
87 160 45.037 88 160 45.037 89 160 45.037 
90 160 45.037 91 159.037 46 91 160 45.037 
92 160 45.037 92 159.037 46 92.963 160 46 
83 161 45.037 82.037 161 46 84 161 45.037 
85 161 45.037 86 161 45.037 87 161 45.037 
88 161 45.037 89 161 45.037 90 161 45.037 
91 161 45.037 92 161 45.037 92.963 161 46 
83 162 45.037 82.037 162 46 84 162 45.037 
85 162 45.037 86 162 45.037 87 162 45.037 
88 162 45.037 89 162 45.037 90 162 45.037 
91 162 45.037 92 162 45.037 92.963 162 46 
83 163 45.037 82.037 163 46 84 163 45.037 
85 163 45.037 86 163 45.037 87 163 45.037 
88 163 45.037 89 163 45.037 90 163 45.037 
91 163 45.037 92 163 45.037 92.963 163 46 
83 164 45.037 82.037 164 46 84 164 45.037 
85 164 45.037 86 164 45.037 87 164 45.037 
88 164 45.037 89 164 45.037 90 164 45.037 
91 164 45.037 92 164 45.037 92.963 164 46 
83 165 45.037 82.037 165 46 84 165 45.037 
85 165 45.037 86 165 45.037 87 165 45.037 
88 165 45.037 89 165 45.037 90 165 45.037 
91 165 45.037 92 165 45.037 92.963 165 46 
83 166 45.037 82.037 166 46 84 166 45.037 
85 166 45.037 86 166 45.037 87 166 45.037 
88 166 45.037 89 166 45.037 90 166 45.037 
91 166 45.037 92 166 45.037 92.963 166 46 
83 167 45.037 82.037 167 46 84 167 45.037 
85 167 45.037 86 167 45.037 87 167 45.037 
88 167 45.037 89 167 45.037 90 167 45.037 
91 167 45.037 92 167 45.037 92.963 167 46 
83 168 45.037 82.037 168 46 84 168 45.037 
85 168 45.037 86 168 45.037 87 168 45.037 
88 168 45.037 89 168 45.037 90 168 45.037 
91 168 45.037 92 168 45.037 92.963 168 46 
83 169 45.037 82.037 169 46 84 169 45.037 
85 169 45.037 86 169 45.037 87 169 45.037 
88 169 45.037 89 169 45.037 90 169 45.037 
91 169 45.037 91.963 169 46 92 168.963 46 
83 170 45.037 82.037 170 46 84 170 45.037 
85 170 45.037 86 170 45.037 87 170 45.037 
88 170 45.037 89 170 45.037 90 170 45.037 
90.963 170 46 91 169.963 46 82 171 45.037 
82 170.037 46 81.037 171 46 83 171 45.037 
84 171 45.037 85 171 45.037 86 171 45.037 
87 171 45.037 88 171 45.037 89 171 45.037 
90 171 45.037 90.963 171 46 82 171.963 46 
82.037 172 46 83 172 45.037 84 172 45.037 
85 172 45.037 86 172 45.037 87 172 45.037 
88 172 45.037 89 172 45.037 90 172 45.037 
90.963 172 46 83 173 45.037 82.037 173 46 
84 173 45.037 85 173 45.037 86 173 45.037 
87 173 45.037 88 173 45.037 89 173 45.037 
89.963 173 46 90 172.963 46 83 173.963 46 
84 173.963 46 85 173.963 46 86 173.963 46 
87 173.963 46 88 173.963 46 89 173.963 46 
81 145 46.037 81 144.037 47 80.037 145 47 
82 145 46.037 82 144.037 47 83 145 46.037 
83 144.037 47 84 145 46.037 84 144.037 47 
85 145 46.037 85 144.037 47 86 145 46.037 
86 144.037 47 87 145 46.037 87 144.037 47 
88 145 46.037 88 144.037 47 88.963 145 47 
80.037 146 47 88.963 146 47 80.037 147 47 
89 146.037 47 89 147 46.037 89.963 147 47 
80.037 148 47 90 147.037 47 90.963 148 47 
80.037 149 47 90.963 149 47 80.037 150 47 
90.963 150 47 80.037 151 47 90.963 151 47 
81 151.963 47 82 152 46.037 81.037 152 47 
90.963 152 47 82 153 46.037 81.037 153 47 
90.963 153 47 82 154 46.037 81.037 154 47 
90.963 154 47 82 155 46.037 81.037 155 47 
90.963 155 47 82 155.963 47 82.037 156 47 
90.963 156 47 82.037 157 47 90.963 157 47 
82.037 158 47 90.963 158 47 82.037 159 47 
91 158.037 47 91 159 46.037 91.963 159 47 
82.037 160 47 92 159.037 47 92.963 160 47 
82.037 161 47 92.963 161 47 82.037 162 47 
92.963 162 47 82.037 163 47 92.963 163 47 
82.037 164 47 92.963 164 47 82.037 165 47 
92.963 165 47 82.037 166 47 92.963 166 47 
82.037 167 47 92.963 167 47 82.037 168 47 
92.963 168 47 82.037 169 47 91.963 169 47 
92 168.963 47 82.037 170 47 90.963 170 47 
91 169.963 47 82 170.037 47 81.037 171 47 
90.963 171 47 82 172 46.037 81.037 172 47 
90.963 172 47 82 172.963 47 82.037 173 47 
90 173 46.037 90.963 173 47 83 173.963 47 
84 173.963 47 85 173.963 47 86 173.963 47 
87 173.963 47 88 173.963 47 89 173.963 47 
90 173.963 47 81 140 47.037 81 139.037 48 
80.037 140 48 82 140 47.037 82 139.037 48 
83 140 47.037 83 139.037 48 84 140 47.037 
84 139.037 48 85 140 47.037 85 139.037 48 
86 140 47.037 86 139.037 48 87 140 47.037 
87 139.037 48 88 140 47.037 88 139.037 48 
88.963 140 48 81 141 47.037 80.037 141 48 
82 141 47.037 83 141 47.037 84 141 47.037 
85 141 47.037 86 141 47.037 87 141 47.037 
88 141 47.037 88.963 141 48 81 142 47.037 
80.037 142 48 82 142 47.037 83 142 47.037 
84 142 47.037 85 142 47.037 86 142 47.037 
87 142 47.037 88 142 47.037 89 141.037 48 
89 142 47.037 90 142 47.037 90 141.037 48 
90.963 142 48 81 143 47.037 80.037 143 48 
82 143 47.037 83 143 47.037 84 143 47.037 
85 143 47.037 86 143 47.037 87 143 47.037 
88 143 47.037 89 143 47.037 90 143 47.037 
90.963 143 48 81 144 47.037 80.037 144 48 
82 144 47.037 83 144 47.037 84 144 47.037 
85 144 47.037 86 144 47.037 87 144 47.037 
88 144 47.037 89 144 47.037 90 144 47.037 
90.963 144 48 80.037 145 48 89 145 47.037 
90 145 47.037 90.963 145 48 80.037 146 48 
89 146 47.037 90 146 47.037 90.963 146 48 
80.037 147 48 90 147 47.037 90.963 147 48 
80.037 148 48 90.963 148 48 80.037 149 48 
90.963 149 48 80.037 150 48 90.963 150 48 
80.037 151 48 90.963 151 48 81 152 47.037 
80.037 152 48 90.963 152 48 81 153 47.037 
80.037 153 48 90.963 153 48 81 154 47.037 
80.037 154 48 91 153.037 48 91 154 47.037 
92 154 47.037 92 153.037 48 92.963 154 48 
81 155 47.037 80.037 155 48 91 155 47.037 
92 155 47.037 92.963 155 48 81 155.963 48 
82 155.963 48 82.037 156 48 91 156 47.037 
92 156 47.037 92.963 156 48 82.037 157 48 
91 157 47.037 92 157 47.037 92.963 157 48 
82.037 158 48 91 158 47.037 92 158 47.037 
92.963 158 48 82.037 159 48 92 159 47.037 
92.963 159 48 82.037 160 48 92.963 160 48 
82.037 161 48 92.963 161 48 82.037 162 48 
92.963 162 48 82.037 163 48 92.963 163 48 
82.037 164 48 92.963 164 48 82.037 165 48 
92.963 165 48 82.037 166 48 92.963 166 48 
82.037 167 48 92.963 167 48 82.037 168 48 
92.963 168 48 82.037 169 48 91.963 169 48 
92 168.963 48 82.037 170 48 90.963 170 48 
91 169.963 48 82 171 47.963 82.037 171 48 
90.963 171 48 82 172 47.963 82.037 172 48 
90.963 172 48 82.037 173 48 90.963 173 48 
83 174 47.037 82.037 174 48 84 174 47.037 
85 174 47.037 86 174 47.037 87 174 47.037 
88 174 47.037 89 174 47.037 90 174 47.037 
90.963 174 48 83 175 47.037 82.037 175 48 
84 175 47.037 85 175 47.037 86 175 47.037 
87 175 47.037 88 175 47.037 89 175 47.037 
90 175 47.037 90.963 175 48 83 176 47.037 
82.037 176 48 84 176 47.037 85 176 47.037 
86 176 47.037 87 176 47.037 88 176 47.037 
89 176 47.037 90 176 47.037 90.963 176 48 
83 177 47.037 82.037 177 48 84 177 47.037 
85 177 47.037 86 177 47.037 87 177 47.037 
88 177 47.037 89 177 47.037 90 177 47.037 
90.963 177 48 83 178 47.037 82.037 178 48 
84 178 47.037 85 178 47.037 86 178 47.037 
87 178 47.037 88 178 47.037 89 178 47.037 
90 178 47.037 90.963 178 48 83 179 47.037 
82.037 179 48 84 179 47.037 85 179 47.037 
86 179 47.037 87 179 47.037 88 179 47.037 
89 179 47.037 90 179 47.037 90.963 179 48 
83 180 47.037 82.037 180 48 84 180 47.037 
85 180 47.037 86 180 47.037 87 180 47.037 
88 180 47.037 89 180 47.037 90 180 47.037 
90.963 180 48 83 181 47.037 82.037 181 48 
84 181 47.037 85 181 47.037 86 181 47.037 
87 181 47.037 88 181 47.037 89 181 47.037 
90 181 47.037 90.963 181 48 83 182 47.037 
82.037 182 48 84 182 47.037 85 182 47.037 
86 182 47.037 87 182 47.037 88 182 47.037 
89 182 47.037 90 182 47.037 90.963 182 48 
83 183 47.037 82.037 183 48 84 183 47.037 
85 183 47.037 86 183 47.037 87 183 47.037 
88 183 47.037 89 183 47.037 90 183 47.037 
90.963 183 48 83 184 47.037 82.037 184 48 
84 184 47.037 85 184 47.037 86 184 47.037 
[...]
POINT_DATA 3518
SCALARS scalars float
LOOKUP_TABLE default
1 1 1 1 1 1 1 1 1 
1 1 1 1 1 1 1 1 1 
1 1 1 1 1 1 1 1 1 
1 1 1 1 1 1 1 1 1 
1 1 1 1 1 1 1 1 1 
1 1 1 1 1 1 1 1 1 
1 1 1 1 1 1 1 1 1 
1 1 1 1 1 1 1 1 1 
1 1 1 1 1 1 1 1 1 
1 1 1 1 1 1 1 1 1 
1 1 1 1 1 1 1 1 1 
1 1 1 1 1 1 1 1 1 
1 1 1 1 1 1 1 1 1 
1 1 1 1 1 1 1 1 1 
1 1 1 1 1 1 1 1 1 
1 1 1 1 1 1 1 1 1 
1 1 1 1 1 1 1 1 1 
1 1 1 1 1 1 1 1 1 
1 1 1 1 1 1 1 1 1 
1 1 1 1 1 1 1 1 1 
1 1 1 1 1 1 1 1 1 
1 1 1 1 1 1 1 1 1 
1 1 1 1 1 1 1 1 1 
1 1 1 1 1 1 1 1 1 
1 1 1 1 1 1 1 1 1 
1 1 1 1 1 1 1 1 1 
1 1 1 1 1 1 1 1 1 
1 1 1 1 1 1 1 1 1 
1 1 1 1 1 1 1 1 1 
1 1 1 1 1 1 1 1 1 
1 1 1 1 1 1 1 1 1 
1 1 1 1 1 1 1 1 1 
1 1 1 1 1 1 1 1 1 
1 1 1 1 1 1 1 1 1 
1 1 1 1 1 1 1 1 1 
1 1 1 1 1 1 1 1 1 
1 1 1 1 1 1 1 1 1 
1 1 1 1 1 1 1 1 1 
1 1 1 1 1 1 1 1 1 
1 1 1 1 1 1 1 1 1 
1 1 1 1 1 1 1 1 1 
1 1 1 1 1 1 1 1 1 
1 1 1 1 1 1 1 1 1 
1 1 1 1 1 1 1 1 1 
1 1 1 1 1 1 1 1 1 
1 1 1 1 1 1 1 1 1 
1 1 1 1 1 1 1 1 1 
1 1 1 1 1 1 1 1 1 
1 1 1 1 1 1 1 1 1 
1 1 1 1 1 1 1 1 1 
1 1 1 1 1 1 1 1 1 
1 1 1 1 1 1 1 1 1 
1 1 1 1 1 1 1 1 1 
1 1 1 1 1 1 1 1 1 
1 1 1 1 1 1 1 1 1 
1 1 1 1 1 1 1 1 1 
1 1 1 1 1 1 1 1 1 
1 1 1 1 1 1 1 1 1 
1 1 1 1 1 1 1 1 1 
1 1 1 1 1 1 1 1 1 
1 1 1 1 1 1 1 1 1 
1 1 1 1 1 1 1 1 1 
1 1 1 1 1 1 1 1 1 
1 1 1 1 1 1 1 1 1 
1 1 1 1 1 1 1 1 1 
1 1 1 1 1 1 1 1 1 
1 1 1 1 1 1 1 1 1 
1 1 1 1 1 1 1 1 1 
1 1 1 1 1 1 1 1 1 
1 1 1 1 1 1 1 1 1 
1 1 1 1 1 1 1 1 1 
1 1 1 1 1 1 1 1 1 
1 1 1 1 1 1 1 1 1 
1 1 1 1 1 1 1 1 1 
1 1 1 1 1 1 1 1 1 
1 1 1 1 1 1 1 1 1 
1 1 1 1 1 1 1 1 1 
1 1 1 1 1 1 1 1 1 
1 1 1 1 1 1 1 1 1 
1 1 1 1 1 1 1 1 1 
1 1 1 1 1 1 1 1 1 
1 1 1 1 1 1 1 1 1 
1 1 1 1 1 1 1 1 1 
1 1 1 1 1 1 1 1 1 
1 1 1 1 1 1 1 1 1 
1 1 1 1 1 1 1 1 1 
1 1 1 1 1 1 1 1 1 
1 1 1 1 1 1 1 1 1 
1 1 1 1 1 1 1 1 1 
1 1 1 1 1 1 1 1 1 
1 1 1 1 1 1 1 1 1 
1 1 1 1 1 1 1 1 1 
1 1 1 1 1 1 1 1 1 
1 1 1 1 1 1 1 1 1 
1 1 1 1 1 1 1 1 1 
1 1 1 1 1 1 1 1 1 
1 1 1 1 1 1 1 1 1 
1 1 1 1 1 1 1 1 1 
1 1 1 1 1 1 1 1 1 
1 1 1 1 1 1 1 1 1 
1 1 1 1 1 1 1 1 1 
1 1 1 1 1 1 1 1 1 
1 1 1 1 1 1 1 1 1 
1 1 1 1 1 1 1 1 1 
1 1 1 1 1 1 1 1 1 
1 1 1 1 1 1 1 1 1 
1 1 1 1 1 1 1 1 1 
1 1 1 1 1 1 1 1 1 
1 1 1 1 1 1 1 1 1 
1 1 1 1 1 1 1 1 1 
1 1 1 1 1 1 1 1 1 
1 1 1 1 1 1 1 1 1 
1 1 1 1 1 1 1 1 1 
1 1 1 1 1 1 1 1 1 
1 1 1 1 1 1 1 1 1 
1 1 1 1 1 1 1 1 1 
1 1 1 1 1 1 1 1 1 
1 1 1 1 1 1 1 1 1 
1 1 1 1 1 1 1 1 1 
1 1 1 1 1 1 1 1 1 
1 1 1 1 1 1 1 1 1 
1 1 1 1 1 1 1 1 1 
1 1 1 1 1 1 1 1 1 
1 1 1 1 1 1 1 1 1 
1 1 1 1 1 1 1 1 1 
1 1 1 1 1 1 1 1 1 
1 1 1 1 1 1 1 1 1 
1 1 1 1 1 1 1 1 1 
1 1 1 1 1 1 1 1 1 
1 1 1 1 1 1 1 1 1 
1 1 1 1 1 1 1 1 1 
1 1 1 1 1 1 1 1 1 
1 1 1 1 1 1 1 1 1 
1 1 1 1 1 1 1 1 1 
1 1 1 1 1 1 1 1 1 
1 1 1 1 1 1 1 1 1 
1 1 1 1 1 1 1 1 1 
1 1 1 1 1 1 1 1 1 
1 1 1 1 1 1 1 1 1 
1 1 1 1 1 1 1 1 1 
1 1 1 1 1 1 1 1 1 
1 1 1 1 1 1 1 1 1 
1 1 1 1 1 1 1 1 1 
1 1 1 1 1 1 1 1 1 
1 1 1 1 1 1 1 1 1 
1 1 1 1 1 1 1 1 1 
1 1 1 1 1 1 1 1 1 
1 1 1 1 1 1 1 1 1 
1 1 1 1 1 1 1 1 1 
1 1 1 1 1 1 1 1 1 
1 1 1 1 1 1 1 1 1 
1 1 1 1 1 1 1 1 1 
1 1 1 1 1 1 1 1 1 
1 1 1 1 1 1 1 1 1 
1 1 1 1 1 1 1 1 1 
1 1 1 1 1 1 1 1 1 
1 1 1 1 1 1 1 1 1 
1 1 1 1 1 1 1 1 1 
1 1 1 1 1 1 1 1 1 
1 1 1 1 1 1 1 1 1 
1 1 1 1 1 1 1 1 1 
1 1 1 1 1 1 1 1 1 
1 1 1 1 1 1 1 1 1 
1 1 1 1 1 1 1 1 1 
1 1 1 1 1 1 1 1 1 
1 1 1 1 1 1 1 1 1 
1 1 1 1 1 1 1 1 1 
1 1 1 1 1 1 1 1 1 
1 1 1 1 1 1 1 1 1 
1 1 1 1 1 1 1 1 1 
1 1 1 1 1 1 1 1 1 
1 1 1 1 1 1 1 1 1 
1 1 1 1 1 1 1 1 1 
1 1 1 1 1 1 1 1 1 
1 1 1 1 1 1 1 1 1 
1 1 1 1 1 1 1 1 1 
1 1 1 1 1 1 1 1 1 
1 1 1 1 1 1 1 1 1 
1 1 1 1 1 1 1 1 1 
1 1 1 1 1 1 1 1 1 
1 1 1 1 1 1 1 1 1 
1 1 1 1 1 1 1 1 1 
1 1 1 1 1 1 1 1 1 
1 1 1 1 1 1 1 1 1 
1 1 1 1 1 1 1 1 1 
1 1 1 1 1 1 1 1 1 
1 1 1 1 1 1 1 1 1 
1 1 1 1 1 1 1 1 1 
1 1 1 1 1 1 1 1 1 
1 1 1 1 1 1 1 1 1 
1 1 1 1 1 1 1 1 1 
1 1 1 1 1 1 1 1 1 
1 1 1 1 1 1 1 1 1 
1 1 1 1 1 1 1 1 1 
1 1 1 1 1 1 1 1 1 
1 1 1 1 1 1 1 1 1 
1 1 1 1 1 1 1 1 1 
1 1 1 1 1 1 1 1 1 
1 1 1 1 1 1 1 1 1 
1 1 1 1 1 1 1 1 1 
1 1 1 1 1 1 1 1 1 
1 1 1 1 1 1 1 1 1 
1 1 1 1 1 1 1 1 1 
1 1 1 1 1 1 1 1 1 
1 1 1 1 1 1 1 1 1 
1 1 1 1 1 1 1 1 1 
1 1 1 1 1 1 1 1 1 
1 1 1 1 1 1 1 1 1 
1 1 1 1 1 1 1 1 1 
1 1 1 1 1 1 1 1 1 
1 1 1 1 1 1 1 1 1 
1 1 1 1 1 1 1 1 1 
1 1 1 1 1 1 1 1 1 
1 1 1 1 1 1 1 1 1 
1 1 1 1 1 1 1 1 1 
1 1 1 1 1 1 1 1 1 
1 1 1 1 1 1 1 1 1 
1 1 1 1 1 1 1 1 1 
1 1 1 1 1 1 1 1 1 
1 1 1 1 1 1 1 1 1 
1 1 1 1 1 1 1 1 1 
1 1 1 1 1 1 1 1 1 
1 1 1 1 1 1 1 1 1 
1 1 1 1 1 1 1 1 1 
1 1 1 1 1 1 1 1 1 
1 1 1 1 1 1 1 1 1 
1 1 1 1 1 1 1 1 1 
1 1 1 1 1 1 1 1 1 
1 1 1 1 1 1 1 1 1 
1 1 1 1 1 1 1 1 1 
1 1 1 1 1 1 1 1 1 
1 1 1 1 1 1 1 1 1 
1 1 1 1 1 1 1 1 1 
1 1 1 1 1 1 1 1 1 
1 1 1 1 1 1 1 1 1 
1 1 1 1 1 1 1 1 1 
1 1 1 1 1 1 1 1 1 
1 1 1 1 1 1 1 1 1 
1 1 1 1 1 1 1 1 1 
1 1 1 1 1 1 1 1 1 
1 1 1 1 1 1 1 1 1 
1 1 1 1 1 1 1 1 1 
1 1 1 1 1 1 1 1 1 
1 1 1 1 1 1 1 1 1 
1 1 1 1 1 1 1 1 1 
1 1 1 1 1 1 1 1 1 
1 1 1 1 1 1 1 1 1 
1 1 1 1 1 1 1 1 1 
1 1 1 1 1 1 1 1 1 
1 1 1 1 1 1 1 1 1 
1 1 1 1 1 1 1 1 1 
1 1 1 1 1 1 1 1 1 
1 1 1 1 1 1 1 1 1 
1 1 1 1 1 1 1 1 1 
1 1 1 1 1 1 1 1 1 
1 1 1 1 1 1 1 1 1 
1 1 1 1 1 1 1 1 1 
1 1 1 1 1 1 1 1 1 
1 1 1 1 1 1 1 1 1 
1 1 1 1 1 1 1 1 1 
1 1 1 1 1 1 1 1 1 
1 1 1 1 1 1 1 1 1 
1 1 1 1 1 1 1 1 1 
1 1 1 1 1 1 1 1 1 
1 1 1 1 1 1 1 1 1 
1 1 1 1 1 1 1 1 1 
1 1 1 1 1 1 1 1 1 
1 1 1 1 1 1 1 1 1 
1 1 1 1 1 1 1 1 1 
1 1 1 1 1 1 1 1 1 
1 1 1 1 1 1 1 1 1 
1 1 1 1 1 1 1 1 1 
1 1 1 1 1 1 1 1 1 
1 1 1 1 1 1 1 1 1 
1 1 1 1 1 1 1 1 1 
1 1 1 1 1 1 1 1 1 
1 1 1 1 1 1 1 1 1 
1 1 1 1 1 1 1 1 1 
1 1 1 1 1 1 1 1 1 
1 1 1 1 1 1 1 1 1 
1 1 1 1 1 1 1 1 1 
1 1 1 1 1 1 1 1 1 
1 1 1 1 1 1 1 1 1 
1 1 1 1 1 1 1 1 1 
1 1 1 1 1 1 1 1 1 
1 1 1 1 1 1 1 1 1 
1 1 1 1 1 1 1 1 1 
1 1 1 1 1 1 1 1 1 
1 1 1 1 1 1 1 1 1 
1 1 1 1 1 1 1 1 1 
1 1 1 1 1 1 1 1 1 
1 1 1 1 1 1 1 1 1 
1 1 1 1 1 1 1 1 1 
1 1 1 1 1 1 1 1 1 
1 1 1 1 1 1 1 1 1 
1 1 1 1 1 1 1 1 1 
1 1 1 1 1 1 1 1 1 
1 1 1 1 1 1 1 1 1 
1 1 1 1 1 1 1 1 1 
1 1 1 1 1 1 1 1 1 
1 1 1 1 1 1 1 1 1 
1 1 1 1 1 1 1 1 1 
1 1 1 1 1 1 1 1 1 
1 1 1 1 1 1 1 1 1 
1 1 1 1 1 1 1 1 1 
1 1 1 1 1 1 1 1 1 
1 1 1 1 1 1 1 1 1 
1 1 1 1 1 1 1 1 1 
1 1 1 1 1 1 1 1 1 
1 1 1 1 1 1 1 1 1 
1 1 1 1 1 1 1 1 1 
1 1 1 1 1 1 1 1 1 
1 1 1 1 1 1 1 1 1 
1 1 1 1 1 1 1 1 1 
1 1 1 1 1 1 1 1 1 
1 1 1 1 1 1 1 1 1 
1 1 1 1 1 1 1 1 1 
1 1 1 1 1 1 1 1 1 
1 1 1 1 1 1 1 1 1 
1 1 1 1 1 1 1 1 1 
1 1 1 1 1 1 1 1 1 
1 1 1 1 1 1 1 1 1 
1 1 1 1 1 1 1 1 1 
1 1 1 1 1 1 1 1 1 
1 1 1 1 1 1 1 1 1 
1 1 1 1 1 1 1 1 1 
1 1 1 1 1 1 1 1 1 
1 1 1 1 1 1 1 1 1 
1 1 1 1 1 1 1 1 1 
1 1 1 1 1 1 1 1 1 
1 1 1 1 1 1 1 1 1 
1 1 1 1 1 1 1 1 1 
1 1 1 1 1 1 1 1 1 
1 1 1 1 1 1 1 1 1 
1 1 1 1 1 1 1 1 1 
1 1 1 1 1 1 1 1 1 
1 1 1 1 1 1 1 1 1 
1 1 1 1 1 1 1 1 1 
1 1 1 1 1 1 1 1 1 
1 1 1 1 1 1 1 1 1 
1 1 1 1 1 1 1 1 1 
1 1 1 1 1 1 1 1 1 
1 1 1 1 1 1 1 1 1 
1 1 1 1 1 1 1 1 1 
1 1 1 1 1 1 1 1 1 
1 1 1 1 1 1 1 1 1 
1 1 1 1 1 1 1 1 1 
1 1 1 1 1 1 1 1 1 
1 1 1 1 1 1 1 1 1 
1 1 1 1 1 1 1 1 1 
1 1 1 1 1 1 1 1 1 
1 1 1 1 1 1 1 1 1 
1 1 1 1 1 1 1 1 1 
1 1 1 1 1 1 1 1 1 
1 1 1 1 1 1 1 1 1 
1 1 1 1 1 1 1 1 1 
1 1 1 1 1 1 1 1 1 
1 1 1 1 1 1 1 1 1 
1 1 1 1 1 1 1 1 1 
1 1 1 1 1 1 1 1 1 
1 1 1 1 1 1 1 1 1 
1 1 1 1 1 1 1 1 1 
1 1 1 1 1 1 1 1 1 
1 1 1 1 1 1 1 1 1 
1 1 1 1 1 1 1 1 1 
1 1 1 1 1 1 1 1 1 
1 1 1 1 1 1 1 1 1 
1 1 1 1 1 1 1 1 1 
1 1 1 1 1 1 1 1 1 
1 1 1 1 1 1 1 1 1 
1 1 1 1 1 1 1 1 1 
1 1 1 1 1 1 1 1 1 
1 1 1 1 1 1 1 1 1 
1 1 1 1 1 1 1 1 1 
1 1 1 1 1 1 1 1 1 
1 1 1 1 1 1 1 1 1 
1 1 1 1 1 1 1 1 1 
1 1 1 1 1 1 1 1 1 
1 1 1 1 1 1 1 1 1 
1 1 1 1 1 1 1 1 1 
1 1 1 1 1 1 1 1 1 
1 1 1 1 1 1 1 1 1 
1 1 1 1 1 1 1 1 1 
1 1 1 1 1 1 1 1 1 
1 1 1 1 1 1 1 1 1 
1 1 1 1 1 1 1 1 1 
1 1 1 1 1 1 1 1 1 
1 1 1 1 1 1 1 1 1 
1 1 1 1 1 1 1 1 1 
1 1 1 1 1 1 1 1 1 
1 1 1 1 1 1 1 1 
NORMALS normals float
-0.0369863 -0.0369863 -0.998631 -0.0261802 -0.706864 -0.706864 -0.998631 -0.0369863 -0.0369863 
0 -0.0370117 -0.999315 0 -0.707107 -0.707107 0 -0.0370117 -0.999315 
0 -0.707107 -0.707107 0 -0.0370117 -0.999315 0 -0.707107 -0.707107 
0 -0.0370117 -0.999315 0 -0.707107 -0.707107 0 -0.0370117 -0.999315 
0 -0.707107 -0.707107 0 -0.0370117 -0.999315 0 -0.707107 -0.707107 
0.0369863 -0.0369863 -0.998631 0.0261802 -0.706864 -0.706864 0.998631 -0.0369863 -0.0369863 
-0.0370117 0 -0.999315 -0.999315 0 -0.0370117 0 0 -1 
0 0 -1 0 0 -1 0 0 -1 
0 0 -1 0 0 -1 0.0370117 0 -0.999315 
0.584476 -0.562829 -0.584476 -0.0370117 0 -0.999315 -0.999315 0 -0.0370117 
0 0 -1 0 0 -1 0 0 -1 
0 0 -1 0 0 -1 0 0 -1 
0 0 -1 0.562829 -0.584476 -0.584476 0 -0.0370117 -0.999315 
0.0369863 -0.0369863 -0.998631 0.0369863 -0.998631 -0.0369863 0.998631 -0.0369863 -0.0369863 
-0.0370117 0 -0.999315 -0.999315 0 -0.0370117 0 0 -1 
0 0 -1 0 0 -1 0 0 -1 
0 0 -1 0 0 -1 0 0 -1 
0 0 -1 0.0370117 0 -0.999315 0.999315 0 -0.0370117 
-0.0370117 0 -0.999315 -0.999315 0 -0.0370117 0 0 -1 
0 0 -1 0 0 -1 0 0 -1 
0 0 -1 0 0 -1 0 0 -1 
0 0 -1 0.0370117 0 -0.999315 0.999315 0 -0.0370117 
-0.0369863 0.0369863 -0.998631 -0.998631 0.0369863 -0.0369863 0 0.0370117 -0.999315 
0 0 -1 0 0 -1 0 0 -1 
0 0 -1 0 0 -1 0 0 -1 
0 0 -1 0.0370117 0 -0.999315 0.999315 0 -0.0370117 
-0.0369863 0.998631 -0.0369863 -0.562829 0.584476 -0.584476 -0.584476 0.562829 -0.584476 
-0.0370117 0 -0.999315 0 0 -1 0 0 -1 
0 0 -1 0 0 -1 0 0 -1 
0 0 -1 0.0370117 0 -0.999315 0.999315 0 -0.0370117 
-0.0370117 0 -0.999315 -0.707107 0 -0.707107 0 0 -1 
0 0 -1 0 0 -1 0 0 -1 
0 0 -1 0 0 -1 0.0370117 0 -0.999315 
0.999315 0 -0.0370117 -0.0370117 0 -0.999315 -0.707107 0 -0.707107 
0 0 -1 0 0 -1 0 0 -1 
0 0 -1 0 0 -1 0 0 -1 
0.0370117 0 -0.999315 0.999315 0 -0.0370117 -0.0370117 0 -0.999315 
-0.707107 0 -0.707107 0 0 -1 0 0 -1 
0 0 -1 0 0 -1 0 0 -1 
0 0 -1 0.0370117 0 -0.999315 0.999315 0 -0.0370117 
-0.0370117 0 -0.999315 -0.999315 0 -0.0370117 0 0 -1 
0 0 -1 0 0 -1 0 0 -1 
0 0 -1 0 0 -1 0.0370117 0 -0.999315 
0.999315 0 -0.0370117 -0.0370117 0 -0.999315 -0.999315 0 -0.0370117 
0 0 -1 0 0 -1 0 0 -1 
0 0 -1 0 0 -1 0 0 -1 
0.0370117 0 -0.999315 0.999315 0 -0.0370117 -0.0370117 0 -0.999315 
-0.999315 0 -0.0370117 0 0 -1 0 0 -1 
0 0 -1 0 0 -1 0 0 -1 
0 0 -1 0.0370117 0 -0.999315 0.999315 0 -0.0370117 
-0.0370117 0 -0.999315 -0.999315 0 -0.0370117 0 0 -1 
0 0 -1 0 0 -1 0 0 -1 
0 0 -1 0 0 -1 0.0370117 0 -0.999315 
0.584476 -0.562829 -0.584476 -0.0370117 0 -0.999315 -0.999315 0 -0.0370117 
0 0 -1 0 0 -1 0 0 -1 
0 0 -1 0 0 -1 0 0 -1 
0 0 -1 0.562829 -0.584476 -0.584476 0 -0.0370117 -0.999315 
0.0369863 -0.0369863 -0.998631 0.0369863 -0.998631 -0.0369863 0.998631 -0.0369863 -0.0369863 
-0.0370117 0 -0.999315 -0.999315 0 -0.0370117 0 0 -1 
0 0 -1 0 0 -1 0 0 -1 
0 0 -1 0 0 -1 0 0 -1 
0 0 -1 0.0370117 0 -0.999315 0.999315 0 -0.0370117 
-0.0370117 0 -0.999315 -0.999315 0 -0.0370117 0 0 -1 
0 0 -1 0 0 -1 0 0 -1 
0 0 -1 0 0 -1 0 0 -1 
0 0 -1 0.0370117 0 -0.999315 0.999315 0 -0.0370117 
-0.0370117 0 -0.999315 -0.999315 0 -0.0370117 0 0 -1 
0 0 -1 0 0 -1 0 0 -1 
0 0 -1 0 0 -1 0 0 -1 
0 0 -1 0.0370117 0 -0.999315 0.999315 0 -0.0370117 
-0.0370117 0 -0.999315 -0.999315 0 -0.0370117 0 0 -1 
0 0 -1 0 0 -1 0 0 -1 
0 0 -1 0 0 -1 0 0 -1 
0 0 -1 0.0370117 0 -0.999315 0.999315 0 -0.0370117 
-0.0370117 0 -0.999315 -0.999315 0 -0.0370117 0 0 -1 
0 0 -1 0 0 -1 0 0 -1 
0 0 -1 0 0 -1 0 0 -1 
0 0 -1 0.0370117 0 -0.999315 0.999315 0 -0.0370117 
-0.0370117 0 -0.999315 -0.999315 0 -0.0370117 0 0 -1 
0 0 -1 0 0 -1 0 0 -1 
0 0 -1 0 0 -1 0 0 -1 
0 0 -1 0.0370117 0 -0.999315 0.999315 0 -0.0370117 
-0.0370117 0 -0.999315 -0.999315 0 -0.0370117 0 0 -1 
0 0 -1 0 0 -1 0 0 -1 
0 0 -1 0 0 -1 0 0 -1 
0 0 -1 0.0370117 0 -0.999315 0.999315 0 -0.0370117 
-0.0370117 0 -0.999315 -0.999315 0 -0.0370117 0 0 -1 
0 0 -1 0 0 -1 0 0 -1 
0 0 -1 0 0 -1 0 0 -1 
0 0 -1 0.0369863 0.0369863 -0.998631 0.998631 0.0369863 -0.0369863 
-0.0370117 0 -0.999315 -0.999315 0 -0.0370117 0 0 -1 
0 0 -1 0 0 -1 0 0 -1 
0 0 -1 0 0 -1 0 0 -1 
0.0369863 0.0369863 -0.998631 0.706864 0.706864 -0.0261802 0.706864 0.706864 -0.0261802 
-0.0370117 0 -0.999315 -0.720064 -0.693395 -0.026669 0 0 -1 
0 0 -1 0 0 -1 0 0 -1 
0 0 -1 0 0 -1 0.0370117 0 -0.999315 
0.720064 0.693395 -0.026669 0.706864 0.706864 -0.0261802 -0.0370117 0 -0.999315 
-0.720064 -0.693395 -0.026669 -0.999315 0 -0.0370117 0 0 -1 
0 0 -1 0 0 -1 0 0 -1 
0 0 -1 0 0 -1 0 0 -1 
0.0370117 0 -0.999315 0.999315 0 -0.0370117 -0.584476 0.562829 -0.584476 
-0.584476 0.562829 -0.584476 -0.0370117 0 -0.999315 0 0 -1 
0 0 -1 0 0 -1 0 0 -1 
0 0 -1 0 0 -1 0.0369863 0.0369863 -0.998631 
0.998631 0.0369863 -0.0369863 -0.0369863 0.0369863 -0.998631 -0.998631 0.0369863 -0.0369863 
0 0.0370117 -0.999315 0 0.0370117 -0.999315 0 0.0370117 -0.999315 
0 0.0370117 -0.999315 0 0.0370117 -0.999315 0.0369863 0.0369863 -0.998631 
0.57735 0.57735 -0.57735 0.57735 0.57735 -0.57735 -0.0369863 0.998631 -0.0369863 
0 0.999315 -0.0370117 0 0.999315 -0.0370117 0 0.999315 -0.0370117 
0 0.999315 -0.0370117 0 0.999315 -0.0370117 0.0369863 0.998631 -0.0369863 
-0.0261802 -0.706864 -0.706864 -0.0261802 -0.706864 -0.706864 -0.998631 -0.0369863 -0.0369863 
0 -0.707107 -0.707107 0 -0.707107 -0.707107 0 -0.707107 -0.707107 
0 -0.707107 -0.707107 0 -0.707107 -0.707107 0 -0.707107 -0.707107 
0 -0.707107 -0.707107 0 -0.707107 -0.707107 0 -0.707107 -0.707107 
0 -0.707107 -0.707107 0 -0.707107 -0.707107 0 -0.707107 -0.707107 
0.0261802 -0.706864 -0.706864 0.0261802 -0.706864 -0.706864 0.706864 -0.0261802 -0.706864 
-1 0 0 0.591872 -0.569951 -0.569951 -1 0 0 
0.57735 -0.57735 -0.57735 0.57735 -0.57735 -0.57735 0.57735 -0.57735 -0.57735 
-1 0 0 0.584476 -0.584476 -0.562829 0.999315 -0.0370117 0 
-1 0 0 1 0 0 -1 0 0 
1 0 0 -0.999315 0.0370117 0 1 0 0 
-0.584476 0.584476 -0.562829 -0.584476 0.562829 -0.584476 -0.584476 0.562829 -0.584476 
1 0 0 -0.707107 0 -0.707107 -0.707107 0 -0.707107 
1 0 0 -0.707107 0 -0.707107 -0.707107 0 -0.707107 
0.72032 0 -0.693642 -0.706864 0.0261802 -0.706864 -0.706864 0.0261802 -0.706864 
0.72032 0 -0.693642 -0.706864 0.706864 -0.0261802 -0.72032 0.693642 0 
0.72032 0 -0.693642 -1 0 0 0.72032 0 -0.693642 
-1 0 0 0.591872 -0.569951 -0.569951 -1 0 0 
0.57735 -0.57735 -0.57735 0.57735 -0.57735 -0.57735 0.57735 -0.57735 -0.57735 
-1 0 0 0.584476 -0.584476 -0.562829 0.999315 -0.0370117 0 
-1 0 0 1 0 0 -1 0 0 
1 0 0 -1 0 0 1 0 0 
-1 0 0 1 0 0 -1 0 0 
1 0 0 -1 0 0 1 0 0 
-1 0 0 1 0 0 -1 0 0 
0.999315 0.0370117 0 -1 0 0 0.707107 0.707107 0 
0.707107 0.707107 0 -0.72032 -0.693642 0 0.72032 0.693642 0 
0.707107 0.707107 0 -0.706864 -0.706864 0.0261802 -0.998631 -0.0369863 0.0369863 
1 0 0 -0.584476 0.584476 -0.562829 -0.999315 0.0370117 0 
1 0 0 -0.707107 0.707107 0 -0.707107 0.707107 0 
0.57735 0.57735 -0.57735 0.998631 0.0369863 -0.0369863 -0.026669 0.720064 -0.693395 
0 0.72032 -0.693642 0 0.72032 -0.693642 0 0.72032 -0.693642 
0 0.72032 -0.693642 0 0.72032 -0.693642 0 0.72032 -0.693642 
0.0261802 0.706864 -0.706864 -0.0369863 -0.0369863 -0.998631 -0.0261802 -0.706864 -0.706864 
-0.706864 -0.0261802 -0.706864 0 -0.0370117 -0.999315 0 -0.707107 -0.707107 
0 -0.0370117 -0.999315 0 -0.707107 -0.707107 0 -0.0370117 -0.999315 
0 -0.707107 -0.707107 0 -0.0370117 -0.999315 0 -0.707107 -0.707107 
0 -0.0370117 -0.999315 0 -0.707107 -0.707107 0 -0.0370117 -0.999315 
0 -0.999315 -0.0370117 0.0369863 -0.0369863 -0.998631 0.0369863 -0.998631 -0.0369863 
0.998631 -0.0369863 -0.0369863 -0.0370117 0 -0.999315 -0.707107 0 -0.707107 
0 0 -1 0 0 -1 0 0 -1 
0 0 -1 0 0 -1 0 0 -1 
0.0370117 0 -0.999315 0.720064 -0.693395 -0.026669 -0.0370117 0 -0.999315 
-0.707107 0 -0.707107 0 0 -1 0 0 -1 
0 0 -1 0 0 -1 0 0 -1 
0 0 -1 0 0 -1 0.693395 -0.720064 -0.026669 
0 -0.0370117 -0.999315 0.0369863 -0.0369863 -0.998631 0.0369863 -0.998631 -0.0369863 
0.998631 -0.0369863 -0.0369863 -0.0370117 0 -0.999315 -0.707107 0 -0.707107 
0 0 -1 0 0 -1 0 0 -1 
0 0 -1 0 0 -1 0 0 -1 
0 0 -1 0 0 -1 0.0370117 0 -0.999315 
0.999315 0 -0.0370117 -0.026669 -0.693395 -0.720064 -0.707107 0 -0.707107 
0 -0.693642 -0.72032 0 -0.693642 -0.72032 0 -0.693642 -0.72032 
0 -0.693642 -0.72032 0 -0.693642 -0.72032 0 -0.693642 -0.72032 
0 -0.693642 -0.72032 0 0 -1 0.0370117 0 -0.999315 
0.999315 0 -0.0370117 -0.72032 0 -0.693642 0.693642 0 -0.72032 
0.0370117 0 -0.999315 0.999315 0 -0.0370117 -0.72032 0 -0.693642 
0.569951 -0.569951 -0.591872 0.0370117 0 -0.999315 0.999315 0 -0.0370117 
-0.72032 0 -0.693642 0.584476 -0.562829 -0.584476 0.999315 0 -0.0370117 
-0.72032 0 -0.693642 1 0 0 -0.72032 0 -0.693642 
1 0 0 -0.72032 0 -0.693642 1 0 0 
-0.72032 0 -0.693642 1 0 0 -0.584476 0.562829 -0.584476 
-0.707107 0 -0.707107 1 0 0 -0.707107 0 -0.707107 
-0.707107 0 -0.707107 0.72032 -0.693642 0 -0.707107 0 -0.707107 
-0.707107 0 -0.707107 0.693395 -0.720064 -0.026669 0.693395 -0.026669 -0.720064 
0.0369863 -0.0369863 -0.998631 0.0369863 -0.998631 -0.0369863 0.998631 -0.0369863 -0.0369863 
-0.706864 0.0261802 -0.706864 -0.706864 0.0261802 -0.706864 0.693642 0 -0.72032 
0.0370117 0 -0.999315 0.999315 0 -0.0370117 -0.0369863 0.998631 -0.0369863 
-0.569951 0.591872 -0.569951 -0.591872 0.569951 -0.569951 0.693642 0 -0.72032 
0.0370117 0 -0.999315 0.999315 0 -0.0370117 -0.72032 0 -0.693642 
0.693642 0 -0.72032 0.0370117 0 -0.999315 0.999315 0 -0.0370117 
-0.72032 0 -0.693642 0.569951 -0.569951 -0.591872 0.0370117 0 -0.999315 
0.999315 0 -0.0370117 -0.72032 0 -0.693642 0.584476 -0.562829 -0.584476 
0.999315 0 -0.0370117 -0.72032 0 -0.693642 1 0 0 
-0.72032 0 -0.693642 1 0 0 -0.72032 0 -0.693642 
1 0 0 -0.72032 0 -0.693642 1 0 0 
-0.72032 0 -0.693642 1 0 0 -0.72032 0 -0.693642 
0.999315 0 0.0370117 -0.72032 0 -0.693642 0.999315 0 0.0370117 
-0.72032 0 -0.693642 0.999315 0 0.0370117 -0.72032 0 -0.693642 
0.998631 0.0369863 0.0369863 -0.72032 0 -0.693642 0.706864 0.706864 0.0261802 
0.706864 0.706864 0.0261802 -0.72032 0 -0.693642 0.72032 0.693642 0 
0.706864 0.706864 0.0261802 -0.998631 -0.0369863 0.0369863 -1 0 0 
1 0 0 -0.999315 0.0370117 0 -1 0 0 
1 0 0 -0.72032 0 -0.693642 1 0 0 
-0.026669 0.693395 -0.720064 -0.999315 0 -0.0370117 0 0.693642 -0.72032 
0 0.693642 -0.72032 0 0.693642 -0.72032 0 0.693642 -0.72032 
0 0.693642 -0.72032 0 0.693642 -0.72032 0.026669 0.693395 -0.720064 
0.999315 0 -0.0370117 -0.0370117 0 -0.999315 -0.999315 0 -0.0370117 
0 0 -1 0 0 -1 0 0 -1 
0 0 -1 0 0 -1 0 0 -1 
0.0370117 0 -0.999315 0.999315 0 -0.0370117 -0.0370117 0 -0.999315 
-0.999315 0 -0.0370117 0 0 -1 0 0 -1 
0 0 -1 0 0 -1 0 0 -1 
0 0 -1 0.0370117 0 -0.999315 0.999315 0 -0.0370117 
-0.0370117 0 -0.999315 -0.999315 0 -0.0370117 0 0 -1 
0 0 -1 0 0 -1 0 0 -1 
0 0 -1 0 0 -1 0.0370117 0 -0.999315 
0.999315 0 -0.0370117 -0.0370117 0 -0.999315 -0.999315 0 -0.0370117 
0 0 -1 0 0 -1 0 0 -1 
0 0 -1 0 0 -1 0 0 -1 
0.0370117 0 -0.999315 0.999315 0 -0.0370117 -0.0370117 0 -0.999315 
-0.999315 0 -0.0370117 0 0 -1 0 0 -1 
0 0 -1 0 0 -1 0 0 -1 
0 0 -1 0.0370117 0 -0.999315 0.999315 0 -0.0370117 
-0.0370117 0 -0.999315 -0.999315 0 -0.0370117 0 0 -1 
0 0 -1 0 0 -1 0 0 -1 
0 0 -1 0 0 -1 0.0370117 0 -0.999315 
0.999315 0 -0.0370117 -0.0370117 0 -0.999315 -0.999315 0 -0.0370117 
0 0 -1 0 0 -1 0 0 -1 
0 0 -1 0 0 -1 0 0 -1 
0.0370117 0 -0.999315 0.999315 0 -0.0370117 -0.0370117 0 -0.999315 
-0.999315 0 -0.0370117 0 0 -1 0 0 -1 
0 0 -1 0 0 -1 0 0 -1 
0 0 -1 0.0370117 0 -0.999315 0.999315 0 -0.0370117 
-0.0370117 0 -0.999315 -0.999315 0 -0.0370117 0 0 -1 
0 0 -1 0 0 -1 0 0 -1 
0 0 -1 0 0 -1 0.0370117 0 -0.999315 
0.999315 0 -0.0370117 -0.0370117 0 -0.999315 -0.720064 -0.693395 -0.026669 
0 0 -1 0 0 -1 0 0 -1 
0 0 -1 0 0 -1 0 0 -1 
0.0369863 0.0369863 -0.998631 0.998631 0.0369863 -0.0369863 -0.0370117 0 -0.999315 
-0.720064 -0.693395 -0.026669 -0.999315 0 -0.0370117 0 0 -1 
0 0 -1 0 0 -1 0 0 -1 
0 0 -1 0 0 -1 0.0369863 0.0369863 -0.998631 
0.706864 0.706864 -0.0261802 0.706864 0.706864 -0.0261802 -0.584476 0.562829 -0.584476 
-0.584476 0.562829 -0.584476 -0.0370117 0 -0.999315 0 0 -1 
0 0 -1 0 0 -1 0 0 -1 
0.0369863 0.0369863 -0.998631 0.706864 0.706864 -0.0261802 0.706864 0.706864 -0.0261802 
-0.0369863 0.0369863 -0.998631 -0.998631 0.0369863 -0.0369863 0 0.0370117 -0.999315 
0 0.0370117 -0.999315 0 0.0370117 -0.999315 0.0369863 0.0369863 -0.998631 
0.706864 0.706864 -0.0261802 0.706864 0.706864 -0.0261802 -0.0369863 0.998631 -0.0369863 
0 0.999315 -0.0370117 0 0.999315 -0.0370117 0 0.999315 -0.0370117 
0.0369863 0.998631 -0.0369863 -0.0370117 0 -0.999315 -0.026669 -0.693395 -0.720064 