# vtk DataFile Version 3.0
vtk output
ASCII
DATASET POLYDATA
POINTS 3284 float
95 146 45.0357 95 145.036 46 94.0357 146 46 
96 146 45.0357 96 145.036 46 97 146 45.0357 
97 145.036 46 98 146 45.0357 98 145.036 46 
99 146 45.0357 99 145.036 46 100 146 45.0357 
100 145.036 46 100.964 146 46 94 147 45.0357 
94 146.036 46 93.0357 147 46 95 147 45.0357 
96 147 45.0357 97 147 45.0357 98 147 45.0357 
99 147 45.0357 100 147 45.0357 100.964 147 46 
93 148 45.0357 93 147.036 46 92.0357 148 46 
94 148 45.0357 95 148 45.0357 96 148 45.0357 
97 148 45.0357 98 148 45.0357 99 148 45.0357 
100 148 45.0357 100.964 148 46 92 149 45.0357 
92 148.036 46 91.0357 149 46 93 149 45.0357 
94 149 45.0357 95 149 45.0357 96 149 45.0357 
97 149 45.0357 98 149 45.0357 99 149 45.0357 
100 149 45.0357 100.964 149 46 91 150 45.0357 
91 149.036 46 90.0357 150 46 92 150 45.0357 
93 150 45.0357 94 150 45.0357 95 150 45.0357 
96 150 45.0357 97 150 45.0357 98 150 45.0357 
99 150 45.0357 100 150 45.0357 100.964 150 46 
91 151 45.0357 90.0357 151 46 92 151 45.0357 
93 151 45.0357 94 151 45.0357 95 151 45.0357 
96 151 45.0357 97 151 45.0357 98 151 45.0357 
99 151 45.0357 100 151 45.0357 100.964 151 46 
91 152 45.0357 90.0357 152 46 92 152 45.0357 
93 152 45.0357 94 152 45.0357 95 152 45.0357 
96 152 45.0357 97 152 45.0357 98 152 45.0357 
99 152 45.0357 100 152 45.0357 100.964 152 46 
91 153 45.0357 90.0357 153 46 92 153 45.0357 
93 153 45.0357 94 153 45.0357 95 153 45.0357 
96 153 45.0357 97 153 45.0357 98 153 45.0357 
99 153 45.0357 100 153 45.0357 100.964 153 46 
91 154 45.0357 90.0357 154 46 92 154 45.0357 
93 154 45.0357 94 154 45.0357 95 154 45.0357 
96 154 45.0357 97 154 45.0357 98 154 45.0357 
99 154 45.0357 100 154 45.0357 100.964 154 46 
91 155 45.0357 90.0357 155 46 92 155 45.0357 
93 155 45.0357 94 155 45.0357 95 155 45.0357 
96 155 45.0357 97 155 45.0357 98 155 45.0357 
99 155 45.0357 100 155 45.0357 100.964 155 46 
91 156 45.0357 90.0357 156 46 92 156 45.0357 
93 156 45.0357 94 156 45.0357 95 156 45.0357 
96 156 45.0357 97 156 45.0357 98 156 45.0357 
99 156 45.0357 100 156 45.0357 100.964 156 46 
91 157 45.0357 90.0357 157 46 92 157 45.0357 
93 157 45.0357 94 157 45.0357 95 157 45.0357 
96 157 45.0357 97 157 45.0357 98 157 45.0357 
99 157 45.0357 100 157 45.0357 100.964 157 46 
91 158 45.0357 90.0357 158 46 92 158 45.0357 
93 158 45.0357 94 158 45.0357 95 158 45.0357 
96 158 45.0357 97 158 45.0357 98 158 45.0357 
99 158 45.0357 100 158 45.0357 100.964 158 46 
91 159 45.0357 90.0357 159 46 92 159 45.0357 
93 159 45.0357 94 159 45.0357 95 159 45.0357 
96 159 45.0357 97 159 45.0357 98 159 45.0357 
99 159 45.0357 100 159 45.0357 100.964 159 46 
91 159.964 46 92 159.964 46 92.0357 160 46 
93 160 45.0357 94 160 45.0357 95 160 45.0357 
96 160 45.0357 97 160 45.0357 98 160 45.0357 
99 160 45.0357 100 160 45.0357 100.964 160 46 
93 161 45.0357 92.0357 161 46 94 161 45.0357 
95 161 45.0357 96 161 45.0357 97 161 45.0357 
98 161 45.0357 99 161 45.0357 100 161 45.0357 
100.964 161 46 93 162 45.0357 92.0357 162 46 
94 162 45.0357 95 162 45.0357 96 162 45.0357 
97 162 45.0357 98 162 45.0357 99 162 45.0357 
100 162 45.0357 100.964 162 46 93 163 45.0357 
92.0357 163 46 94 163 45.0357 95 163 45.0357 
96 163 45.0357 97 163 45.0357 98 163 45.0357 
99 163 45.0357 100 163 45.0357 100.964 163 46 
93 164 45.0357 92.0357 164 46 94 164 45.0357 
95 164 45.0357 96 164 45.0357 97 164 45.0357 
98 164 45.0357 99 164 45.0357 100 164 45.0357 
100.964 164 46 93 165 45.0357 92.0357 165 46 
94 165 45.0357 95 165 45.0357 96 165 45.0357 
97 165 45.0357 98 165 45.0357 99 165 45.0357 
100 165 45.0357 100.964 165 46 93 166 45.0357 
92.0357 166 46 94 166 45.0357 95 166 45.0357 
96 166 45.0357 97 166 45.0357 98 166 45.0357 
99 166 45.0357 100 166 45.0357 100.964 166 46 
93 167 45.0357 92.0357 167 46 94 167 45.0357 
95 167 45.0357 96 167 45.0357 97 167 45.0357 
98 167 45.0357 99 167 45.0357 99.9643 167 46 
100 166.964 46 93 168 45.0357 92.0357 168 46 
94 168 45.0357 95 168 45.0357 96 168 45.0357 
97 168 45.0357 98 168 45.0357 98.9643 168 46 
99 167.964 46 92 169 45.0357 92 168.036 46 
91.0357 169 46 93 169 45.0357 94 169 45.0357 
95 169 45.0357 96 169 45.0357 97 169 45.0357 
98 169 45.0357 98.9643 169 46 92 169.964 46 
92.0357 170 46 93 170 45.0357 94 170 45.0357 
95 170 45.0357 96 170 45.0357 97 170 45.0357 
98 170 45.0357 98.9643 170 46 93 171 45.0357 
92.0357 171 46 94 171 45.0357 95 171 45.0357 
96 171 45.0357 97 171 45.0357 98 171 45.0357 
98.9643 171 46 93 172 45.0357 92.0357 172 46 
94 172 45.0357 95 172 45.0357 96 172 45.0357 
97 172 45.0357 98 172 45.0357 98.9643 172 46 
93 173 45.0357 92.0357 173 46 94 173 45.0357 
95 173 45.0357 96 173 45.0357 97 173 45.0357 
97.9643 173 46 98 172.964 46 93 173.964 46 
94 173.964 46 95 173.964 46 96 173.964 46 
97 173.964 46 94 145 46.0357 94 144.036 47 
93.0357 145 47 95 145 46.0357 95 144.036 47 
96 145 46.0357 96 144.036 47 97 145 46.0357 
97 144.036 47 98 145 46.0357 98 144.036 47 
99 145 46.0357 99 144.036 47 99.9643 145 47 
94 146 46.0357 93.0357 146 47 100 145.036 47 
100.964 146 47 92 147 46.0357 92 146.036 47 
91.0357 147 47 93 147 46.0357 93 146.036 47 
100.964 147 47 92 148 46.0357 91.0357 148 47 
100.964 148 47 91 149 46.0357 91 148.036 47 
90.0357 149 47 100.964 149 47 90.0357 150 47 
100.964 150 47 90.0357 151 47 100.964 151 47 
90.0357 152 47 100.964 152 47 90.0357 153 47 
100.964 153 47 90.0357 154 47 100.964 154 47 
90.0357 155 47 100.964 155 47 90.0357 156 47 
100.964 156 47 90.0357 157 47 100.964 157 47 
90.0357 158 47 100.964 158 47 91 158.964 47 
91 159 46.9643 91.0357 159 47 100.964 159 47 
92 159.964 47 92.0357 160 47 100.964 160 47 
92.0357 161 47 100.964 161 47 92.0357 162 47 
100.964 162 47 92.0357 163 47 100.964 163 47 
92.0357 164 47 100.964 164 47 92.0357 165 47 
100.964 165 47 92.0357 166 47 100.964 166 47 
92.0357 167 47 99.9643 167 47 100 166.964 47 
92.0357 168 47 98.9643 168 47 99 167.964 47 
92 168.036 47 91.0357 169 47 98.9643 169 47 
92 170 46.0357 91.0357 170 47 98.9643 170 47 
92 171 46.0357 91.0357 171 47 98.9643 171 47 
92 172 46.0357 91.0357 172 47 98.9643 172 47 
92 173 46.0357 91.0357 173 47 97.9643 173 47 
98 172.964 47 92 173.964 47 93 173.964 47 
94 173.964 47 95 173.964 47 96 173.964 47 
97 173.964 47 93 140 47.0357 93 139.036 48 
92.0357 140 48 94 140 47.0357 94 139.036 48 
95 140 47.0357 95 139.036 48 96 140 47.0357 
96 139.036 48 96.9643 140 48 93 141 47.0357 
92.0357 141 48 94 141 47.0357 95 141 47.0357 
96 141 47.0357 96.9643 141 48 93 142 47.0357 
92.0357 142 48 94 142 47.0357 95 142 47.0357 
96 142 47.0357 97 141.036 48 97 142 47.0357 
98 142 47.0357 98 141.036 48 99 142 47.0357 
99 141.036 48 100 142 47.0357 100 141.036 48 
100.964 142 48 93 143 47.0357 92.0357 143 48 
94 143 47.0357 95 143 47.0357 96 143 47.0357 
97 143 47.0357 98 143 47.0357 99 143 47.0357 
100 143 47.0357 100.964 143 48 93 144 47.0357 
92.0357 144 48 94 144 47.0357 95 144 47.0357 
96 144 47.0357 97 144 47.0357 98 144 47.0357 
99 144 47.0357 100 144 47.0357 100.964 144 48 
92 145 47.0357 92 144.036 48 91.0357 145 48 
93 145 47.0357 100 145 47.0357 100.964 145 48 
91 146 47.0357 91 145.036 48 90.0357 146 48 
92 146 47.0357 93 146 47.0357 100.964 146 48 
91 147 47.0357 90.0357 147 48 100.964 147 48 
91 148 47.0357 90.0357 148 48 100.964 148 48 
90.0357 149 48 100.964 149 48 90.0357 150 48 
100.964 150 48 90.0357 151 48 100.964 151 48 
90.0357 152 48 100.964 152 48 90.0357 153 48 
100.964 153 48 91 153.964 48 91 154 47.9643 
92 153.964 48 92 154 47.9643 92.0357 154 48 
100.964 154 48 91 155 47.9643 92 155 47.9643 
92.0357 155 48 100.964 155 48 91 156 47.9643 
92 156 47.9643 92.0357 156 48 100.964 156 48 
91 157 47.9643 92 157 47.9643 92.0357 157 48 
100.964 157 48 91 158 47.9643 92 158 47.9643 
92.0357 158 48 100.964 158 48 92 159 47.9643 
92.0357 159 48 100.964 159 48 92.0357 160 48 
100.964 160 48 92.0357 161 48 100.964 161 48 
92.0357 162 48 100.964 162 48 92.0357 163 48 
100.964 163 48 92.0357 164 48 100.964 164 48 
92.0357 165 48 100.964 165 48 92.0357 166 48 
100.964 166 48 92.0357 167 48 99.9643 167 48 
100 166.964 48 92.0357 168 48 98.9643 168 48 
99 167.964 48 92 168.036 48 91.0357 169 48 
98.9643 169 48 91 170 47.0357 91 169.036 48 
90.0357 170 48 98.9643 170 48 91 171 47.0357 
90.0357 171 48 98.9643 171 48 91 172 47.0357 
90.0357 172 48 98.9643 172 48 91 173 47.0357 
90.0357 173 48 97.9643 173 48 98 172.964 48 
91 174 47.0357 90.0357 174 48 92 174 47.0357 
93 174 47.0357 94 174 47.0357 95 174 47.0357 
96 174 47.0357 96.9643 174 48 97 173.964 48 
91 175 47.0357 90.0357 175 48 92 175 47.0357 
93 175 47.0357 94 175 47.0357 95 175 47.0357 
96 175 47.0357 96.9643 175 48 91 176 47.0357 
90.0357 176 48 92 176 47.0357 93 176 47.0357 
94 176 47.0357 95 176 47.0357 96 176 47.0357 
96.9643 176 48 91 177 47.0357 90.0357 177 48 
92 177 47.0357 93 177 47.0357 94 177 47.0357 
95 177 47.0357 96 177 47.0357 96.9643 177 48 
91 178 47.0357 90.0357 178 48 92 178 47.0357 
93 178 47.0357 94 178 47.0357 95 178 47.0357 
96 178 47.0357 96.9643 178 48 91 179 47.0357 
90.0357 179 48 92 179 47.0357 93 179 47.0357 
94 179 47.0357 95 179 47.0357 96 179 47.0357 
96.9643 179 48 91 180 47.0357 90.0357 180 48 
92 180 47.0357 93 180 47.0357 94 180 47.0357 
95 180 47.0357 96 180 47.0357 96.9643 180 48 
91 181 47.0357 90.0357 181 48 92 181 47.0357 
93 181 47.0357 94 181 47.0357 95 181 47.0357 
96 181 47.0357 96.9643 181 48 91 182 47.0357 
90.0357 182 48 92 182 47.0357 93 182 47.0357 
94 182 47.0357 95 182 47.0357 96 182 47.0357 
96.9643 182 48 91 183 47.0357 90.0357 183 48 
92 183 47.0357 93 183 47.0357 94 183 47.0357 
95 183 47.0357 96 183 47.0357 96.9643 183 48 
91 183.964 48 92 183.964 48 92.0357 184 48 
93 184 47.0357 94 184 47.0357 95 184 47.0357 
96 184 47.0357 96.9643 184 48 93 185 47.0357 
92.0357 185 48 94 185 47.0357 95 185 47.0357 
95.9643 185 48 96 184.964 48 93 185.964 48 
94 185.964 48 95 185.964 48 93 139.036 49 
92.0357 140 49 94 139.036 49 95 139.036 49 
96 139.036 49 96.9643 140 49 92.0357 141 49 
[...]
POINT_DATA 3284
SCALARS scalars float
LOOKUP_TABLE default
1 1 1 1 1 1 1 1 1 
1 1 1 1 1 1 1 1 1 
1 1 1 1 1 1 1 1 1 
1 1 1 1 1 1 1 1 1 
1 1 1 1 1 1 1 1 1 
1 1 1 1 1 1 1 1 1 
1 1 1 1 1 1 1 1 1 
1 1 1 1 1 1 1 1 1 
1 1 1 1 1 1 1 1 1 
1 1 1 1 1 1 1 1 1 
1 1 1 1 1 1 1 1 1 
1 1 1 1 1 1 1 1 1 
1 1 1 1 1 1 1 1 1 
1 1 1 1 1 1 1 1 1 
1 1 1 1 1 1 1 1 1 
1 1 1 1 1 1 1 1 1 
1 1 1 1 1 1 1 1 1 
1 1 1 1 1 1 1 1 1 
1 1 1 1 1 1 1 1 1 
1 1 1 1 1 1 1 1 1 
1 1 1 1 1 1 1 1 1 
1 1 1 1 1 1 1 1 1 
1 1 1 1 1 1 1 1 1 
1 1 1 1 1 1 1 1 1 
1 1 1 1 1 1 1 1 1 
1 1 1 1 1 1 1 1 1 
1 1 1 1 1 1 1 1 1 
1 1 1 1 1 1 1 1 1 
1 1 1 1 1 1 1 1 1 
1 1 1 1 1 1 1 1 1 
1 1 1 1 1 1 1 1 1 
1 1 1 1 1 1 1 1 1 
1 1 1 1 1 1 1 1 1 
1 1 1 1 1 1 1 1 1 
1 1 1 1 1 1 1 1 1 
1 1 1 1 1 1 1 1 1 
1 1 1 1 1 1 1 1 1 
1 1 1 1 1 1 1 1 1 
1 1 1 1 1 1 1 1 1 
1 1 1 1 1 1 1 1 1 
1 1 1 1 1 1 1 1 1 
1 1 1 1 1 1 1 1 1 
1 1 1 1 1 1 1 1 1 
1 1 1 1 1 1 1 1 1 
1 1 1 1 1 1 1 1 1 
1 1 1 1 1 1 1 1 1 
1 1 1 1 1 1 1 1 1 
1 1 1 1 1 1 1 1 1 
1 1 1 1 1 1 1 1 1 
1 1 1 1 1 1 1 1 1 
1 1 1 1 1 1 1 1 1 
1 1 1 1 1 1 1 1 1 
1 1 1 1 1 1 1 1 1 
1 1 1 1 1 1 1 1 1 
1 1 1 1 1 1 1 1 1 
1 1 1 1 1 1 1 1 1 
1 1 1 1 1 1 1 1 1 
1 1 1 1 1 1 1 1 1 
1 1 1 1 1 1 1 1 1 
1 1 1 1 1 1 1 1 1 
1 1 1 1 1 1 1 1 1 
1 1 1 1 1 1 1 1 1 
1 1 1 1 1 1 1 1 1 
1 1 1 1 1 1 1 1 1 
1 1 1 1 1 1 1 1 1 
1 1 1 1 1 1 1 1 1 
1 1 1 1 1 1 1 1 1 
1 1 1 1 1 1 1 1 1 
1 1 1 1 1 1 1 1 1 
1 1 1 1 1 1 1 1 1 
1 1 1 1 1 1 1 1 1 
1 1 1 1 1 1 1 1 1 
1 1 1 1 1 1 1 1 1 
1 1 1 1 1 1 1 1 1 
1 1 1 1 1 1 1 1 1 
1 1 1 1 1 1 1 1 1 
1 1 1 1 1 1 1 1 1 
1 1 1 1 1 1 1 1 1 
1 1 1 1 1 1 1 1 1 
1 1 1 1 1 1 1 1 1 
1 1 1 1 1 1 1 1 1 
1 1 1 1 1 1 1 1 1 
1 1 1 1 1 1 1 1 1 
1 1 1 1 1 1 1 1 1 
1 1 1 1 1 1 1 1 1 
1 1 1 1 1 1 1 1 1 
1 1 1 1 1 1 1 1 1 
1 1 1 1 1 1 1 1 1 
1 1 1 1 1 1 1 1 1 
1 1 1 1 1 1 1 1 1 
1 1 1 1 1 1 1 1 1 
1 1 1 1 1 1 1 1 1 
1 1 1 1 1 1 1 1 1 
1 1 1 1 1 1 1 1 1 
1 1 1 1 1 1 1 1 1 
1 1 1 1 1 1 1 1 1 
1 1 1 1 1 1 1 1 1 
1 1 1 1 1 1 1 1 1 
1 1 1 1 1 1 1 1 1 
1 1 1 1 1 1 1 1 1 
1 1 1 1 1 1 1 1 1 
1 1 1 1 1 1 1 1 1 
1 1 1 1 1 1 1 1 1 
1 1 1 1 1 1 1 1 1 
1 1 1 1 1 1 1 1 1 
1 1 1 1 1 1 1 1 1 
1 1 1 1 1 1 1 1 1 
1 1 1 1 1 1 1 1 1 
1 1 1 1 1 1 1 1 1 
1 1 1 1 1 1 1 1 1 
1 1 1 1 1 1 1 1 1 
1 1 1 1 1 1 1 1 1 
1 1 1 1 1 1 1 1 1 
1 1 1 1 1 1 1 1 1 
1 1 1 1 1 1 1 1 1 
1 1 1 1 1 1 1 1 1 
1 1 1 1 1 1 1 1 1 
1 1 1 1 1 1 1 1 1 
1 1 1 1 1 1 1 1 1 
1 1 1 1 1 1 1 1 1 
1 1 1 1 1 1 1 1 1 
1 1 1 1 1 1 1 1 1 
1 1 1 1 1 1 1 1 1 
1 1 1 1 1 1 1 1 1 
1 1 1 1 1 1 1 1 1 
1 1 1 1 1 1 1 1 1 
1 1 1 1 1 1 1 1 1 
1 1 1 1 1 1 1 1 1 
1 1 1 1 1 1 1 1 1 
1 1 1 1 1 1 1 1 1 
1 1 1 1 1 1 1 1 1 
1 1 1 1 1 1 1 1 1 
1 1 1 1 1 1 1 1 1 
1 1 1 1 1 1 1 1 1 
1 1 1 1 1 1 1 1 1 
1 1 1 1 1 1 1 1 1 
1 1 1 1 1 1 1 1 1 
1 1 1 1 1 1 1 1 1 
1 1 1 1 1 1 1 1 1 
1 1 1 1 1 1 1 1 1 
1 1 1 1 1 1 1 1 1 
1 1 1 1 1 1 1 1 1 
1 1 1 1 1 1 1 1 1 
1 1 1 1 1 1 1 1 1 
1 1 1 1 1 1 1 1 1 
1 1 1 1 1 1 1 1 1 
1 1 1 1 1 1 1 1 1 
1 1 1 1 1 1 1 1 1 
1 1 1 1 1 1 1 1 1 
1 1 1 1 1 1 1 1 1 
1 1 1 1 1 1 1 1 1 
1 1 1 1 1 1 1 1 1 
1 1 1 1 1 1 1 1 1 
1 1 1 1 1 1 1 1 1 
1 1 1 1 1 1 1 1 1 
1 1 1 1 1 1 1 1 1 
1 1 1 1 1 1 1 1 1 
1 1 1 1 1 1 1 1 1 
1 1 1 1 1 1 1 1 1 
1 1 1 1 1 1 1 1 1 
1 1 1 1 1 1 1 1 1 
1 1 1 1 1 1 1 1 1 
1 1 1 1 1 1 1 1 1 
1 1 1 1 1 1 1 1 1 
1 1 1 1 1 1 1 1 1 
1 1 1 1 1 1 1 1 1 
1 1 1 1 1 1 1 1 1 
1 1 1 1 1 1 1 1 1 
1 1 1 1 1 1 1 1 1 
1 1 1 1 1 1 1 1 1 
1 1 1 1 1 1 1 1 1 
1 1 1 1 1 1 1 1 1 
1 1 1 1 1 1 1 1 1 
1 1 1 1 1 1 1 1 1 
1 1 1 1 1 1 1 1 1 
1 1 1 1 1 1 1 1 1 
1 1 1 1 1 1 1 1 1 
1 1 1 1 1 1 1 1 1 
1 1 1 1 1 1 1 1 1 
1 1 1 1 1 1 1 1 1 
1 1 1 1 1 1 1 1 1 
1 1 1 1 1 1 1 1 1 
1 1 1 1 1 1 1 1 1 
1 1 1 1 1 1 1 1 1 
1 1 1 1 1 1 1 1 1 
1 1 1 1 1 1 1 1 1 
1 1 1 1 1 1 1 1 1 
1 1 1 1 1 1 1 1 1 
1 1 1 1 1 1 1 1 1 
1 1 1 1 1 1 1 1 1 
1 1 1 1 1 1 1 1 1 
1 1 1 1 1 1 1 1 1 
1 1 1 1 1 1 1 1 1 
1 1 1 1 1 1 1 1 1 
1 1 1 1 1 1 1 1 1 
1 1 1 1 1 1 1 1 1 
1 1 1 1 1 1 1 1 1 
1 1 1 1 1 1 1 1 1 
1 1 1 1 1 1 1 1 1 
1 1 1 1 1 1 1 1 1 
1 1 1 1 1 1 1 1 1 
1 1 1 1 1 1 1 1 1 
1 1 1 1 1 1 1 1 1 
1 1 1 1 1 1 1 1 1 
1 1 1 1 1 1 1 1 1 
1 1 1 1 1 1 1 1 1 
1 1 1 1 1 1 1 1 1 
1 1 1 1 1 1 1 1 1 
1 1 1 1 1 1 1 1 1 
1 1 1 1 1 1 1 1 1 
1 1 1 1 1 1 1 1 1 
1 1 1 1 1 1 1 1 1 
1 1 1 1 1 1 1 1 1 
1 1 1 1 1 1 1 1 1 
1 1 1 1 1 1 1 1 1 
1 1 1 1 1 1 1 1 1 
1 1 1 1 1 1 1 1 1 
1 1 1 1 1 1 1 1 1 
1 1 1 1 1 1 1 1 1 
1 1 1 1 1 1 1 1 1 
1 1 1 1 1 1 1 1 1 
1 1 1 1 1 1 1 1 1 
1 1 1 1 1 1 1 1 1 
1 1 1 1 1 1 1 1 1 
1 1 1 1 1 1 1 1 1 
1 1 1 1 1 1 1 1 1 
1 1 1 1 1 1 1 1 1 
1 1 1 1 1 1 1 1 1 
1 1 1 1 1 1 1 1 1 
1 1 1 1 1 1 1 1 1 
1 1 1 1 1 1 1 1 1 
1 1 1 1 1 1 1 1 1 
1 1 1 1 1 1 1 1 1 
1 1 1 1 1 1 1 1 1 
1 1 1 1 1 1 1 1 1 
1 1 1 1 1 1 1 1 1 
1 1 1 1 1 1 1 1 1 
1 1 1 1 1 1 1 1 1 
1 1 1 1 1 1 1 1 1 
1 1 1 1 1 1 1 1 1 
1 1 1 1 1 1 1 1 1 
1 1 1 1 1 1 1 1 1 
1 1 1 1 1 1 1 1 1 
1 1 1 1 1 1 1 1 1 
1 1 1 1 1 1 1 1 1 
1 1 1 1 1 1 1 1 1 
1 1 1 1 1 1 1 1 1 
1 1 1 1 1 1 1 1 1 
1 1 1 1 1 1 1 1 1 
1 1 1 1 1 1 1 1 1 
1 1 1 1 1 1 1 1 1 
1 1 1 1 1 1 1 1 1 
1 1 1 1 1 1 1 1 1 
1 1 1 1 1 1 1 1 1 
1 1 1 1 1 1 1 1 1 
1 1 1 1 1 1 1 1 1 
1 1 1 1 1 1 1 1 1 
1 1 1 1 1 1 1 1 1 
1 1 1 1 1 1 1 1 1 
1 1 1 1 1 1 1 1 1 
1 1 1 1 1 1 1 1 1 
1 1 1 1 1 1 1 1 1 
1 1 1 1 1 1 1 1 1 
1 1 1 1 1 1 1 1 1 
1 1 1 1 1 1 1 1 1 
1 1 1 1 1 1 1 1 1 
1 1 1 1 1 1 1 1 1 
1 1 1 1 1 1 1 1 1 
1 1 1 1 1 1 1 1 1 
1 1 1 1 1 1 1 1 1 
1 1 1 1 1 1 1 1 1 
1 1 1 1 1 1 1 1 1 
1 1 1 1 1 1 1 1 1 
1 1 1 1 1 1 1 1 1 
1 1 1 1 1 1 1 1 1 
1 1 1 1 1 1 1 1 1 
1 1 1 1 1 1 1 1 1 
1 1 1 1 1 1 1 1 1 
1 1 1 1 1 1 1 1 1 
1 1 1 1 1 1 1 1 1 
1 1 1 1 1 1 1 1 1 
1 1 1 1 1 1 1 1 1 
1 1 1 1 1 1 1 1 1 
1 1 1 1 1 1 1 1 1 
1 1 1 1 1 1 1 1 1 
1 1 1 1 1 1 1 1 1 
1 1 1 1 1 1 1 1 1 
1 1 1 1 1 1 1 1 1 
1 1 1 1 1 1 1 1 1 
1 1 1 1 1 1 1 1 1 
1 1 1 1 1 1 1 1 1 
1 1 1 1 1 1 1 1 1 
1 1 1 1 1 1 1 1 1 
1 1 1 1 1 1 1 1 1 
1 1 1 1 1 1 1 1 1 
1 1 1 1 1 1 1 1 1 
1 1 1 1 1 1 1 1 1 
1 1 1 1 1 1 1 1 1 
1 1 1 1 1 1 1 1 1 
1 1 1 1 1 1 1 1 1 
1 1 1 1 1 1 1 1 1 
1 1 1 1 1 1 1 1 1 
1 1 1 1 1 1 1 1 1 
1 1 1 1 1 1 1 1 1 
1 1 1 1 1 1 1 1 1 
1 1 1 1 1 1 1 1 1 
1 1 1 1 1 1 1 1 1 
1 1 1 1 1 1 1 1 1 
1 1 1 1 1 1 1 1 1 
1 1 1 1 1 1 1 1 1 
1 1 1 1 1 1 1 1 1 
1 1 1 1 1 1 1 1 1 
1 1 1 1 1 1 1 1 1 
1 1 1 1 1 1 1 1 1 
1 1 1 1 1 1 1 1 1 
1 1 1 1 1 1 1 1 1 
1 1 1 1 1 1 1 1 1 
1 1 1 1 1 1 1 1 1 
1 1 1 1 1 1 1 1 1 
1 1 1 1 1 1 1 1 1 
1 1 1 1 1 1 1 1 1 
1 1 1 1 1 1 1 1 1 
1 1 1 1 1 1 1 1 1 
1 1 1 1 1 1 1 1 1 
1 1 1 1 1 1 1 1 1 
1 1 1 1 1 1 1 1 1 
1 1 1 1 1 1 1 1 1 
1 1 1 1 1 1 1 1 1 
1 1 1 1 1 1 1 1 1 
1 1 1 1 1 1 1 1 1 
1 1 1 1 1 1 1 1 1 
1 1 1 1 1 1 1 1 1 
1 1 1 1 1 1 1 1 1 
1 1 1 1 1 1 1 1 1 
1 1 1 1 1 1 1 1 1 
1 1 1 1 1 1 1 1 1 
1 1 1 1 1 1 1 1 1 
1 1 1 1 1 1 1 1 1 
1 1 1 1 1 1 1 1 1 
1 1 1 1 1 1 1 1 1 
1 1 1 1 1 1 1 1 1 
1 1 1 1 1 1 1 1 1 
1 1 1 1 1 1 1 1 1 
1 1 1 1 1 1 1 1 1 
1 1 1 1 1 1 1 1 1 
1 1 1 1 1 1 1 1 1 
1 1 1 1 1 1 1 1 1 
1 1 1 1 1 1 1 1 1 
1 1 1 1 1 1 1 1 1 
1 1 1 1 1 1 1 1 1 
1 1 1 1 1 1 1 1 1 
1 1 1 1 1 1 1 1 1 
1 1 1 1 1 1 1 1 1 
1 1 1 1 1 1 1 1 1 
1 1 1 1 1 1 1 1 1 
1 1 1 1 1 1 1 1 1 
1 1 1 1 1 1 1 1 1 
1 1 1 1 1 1 1 1 1 
1 1 1 1 1 1 1 1 1 
1 1 1 1 1 1 1 1 1 
1 1 1 1 1 1 1 1 1 
1 1 1 1 1 1 1 1 1 
1 1 1 1 1 1 1 1 1 
1 1 1 1 1 1 1 1 1 
1 1 1 1 1 1 1 1 
NORMALS normals float
-0.0356688 -0.0356688 -0.998727 -0.0252458 -0.706881 -0.706881 -0.57735 -0.57735 -0.57735 
0 -0.0356915 -0.999363 0 -0.707107 -0.707107 0 -0.0356915 -0.999363 
0 -0.707107 -0.707107 0 -0.0356915 -0.999363 0 -0.707107 -0.707107 
0 -0.0356915 -0.999363 0 -0.707107 -0.707107 0.0356688 -0.0356688 -0.998727 
0.0356688 -0.998727 -0.0356688 0.998727 -0.0356688 -0.0356688 -0.0356688 -0.0356688 -0.998727 
-0.57735 -0.57735 -0.57735 -0.57735 -0.57735 -0.57735 0 0 -1 
0 0 -1 0 0 -1 0 0 -1 
0 0 -1 0.0356915 0 -0.999363 0.999363 0 -0.0356915 
-0.0356688 -0.0356688 -0.998727 -0.57735 -0.57735 -0.57735 -0.57735 -0.57735 -0.57735 
0 0 -1 0 0 -1 0 0 -1 
0 0 -1 0 0 -1 0 0 -1 
0.0356915 0 -0.999363 0.999363 0 -0.0356915 -0.0356688 -0.0356688 -0.998727 
-0.57735 -0.57735 -0.57735 -0.57735 -0.57735 -0.57735 0 0 -1 
0 0 -1 0 0 -1 0 0 -1 
0 0 -1 0 0 -1 0 0 -1 
0.0356915 0 -0.999363 0.999363 0 -0.0356915 -0.0356688 -0.0356688 -0.998727 
-0.57735 -0.57735 -0.57735 -0.998727 -0.0356688 -0.0356688 0 0 -1 
0 0 -1 0 0 -1 0 0 -1 
0 0 -1 0 0 -1 0 0 -1 
0 0 -1 0.0356915 0 -0.999363 0.999363 0 -0.0356915 
-0.0356915 0 -0.999363 -0.999363 0 -0.0356915 0 0 -1 
0 0 -1 0 0 -1 0 0 -1 
0 0 -1 0 0 -1 0 0 -1 
0 0 -1 0.0356915 0 -0.999363 0.999363 0 -0.0356915 
-0.0356915 0 -0.999363 -0.999363 0 -0.0356915 0 0 -1 
0 0 -1 0 0 -1 0 0 -1 
0 0 -1 0 0 -1 0 0 -1 
0 0 -1 0.0356915 0 -0.999363 0.999363 0 -0.0356915 
-0.0356915 0 -0.999363 -0.999363 0 -0.0356915 0 0 -1 
0 0 -1 0 0 -1 0 0 -1 
0 0 -1 0 0 -1 0 0 -1 
0 0 -1 0.0356915 0 -0.999363 0.999363 0 -0.0356915 
-0.0356915 0 -0.999363 -0.999363 0 -0.0356915 0 0 -1 
0 0 -1 0 0 -1 0 0 -1 
0 0 -1 0 0 -1 0 0 -1 
0 0 -1 0.0356915 0 -0.999363 0.999363 0 -0.0356915 
-0.0356915 0 -0.999363 -0.999363 0 -0.0356915 0 0 -1 
0 0 -1 0 0 -1 0 0 -1 
0 0 -1 0 0 -1 0 0 -1 
0 0 -1 0.0356915 0 -0.999363 0.999363 0 -0.0356915 
-0.0356915 0 -0.999363 -0.999363 0 -0.0356915 0 0 -1 
0 0 -1 0 0 -1 0 0 -1 
0 0 -1 0 0 -1 0 0 -1 
0 0 -1 0.0356915 0 -0.999363 0.999363 0 -0.0356915 
-0.0356915 0 -0.999363 -0.999363 0 -0.0356915 0 0 -1 
0 0 -1 0 0 -1 0 0 -1 
0 0 -1 0 0 -1 0 0 -1 
0 0 -1 0.0356915 0 -0.999363 0.999363 0 -0.0356915 
-0.0356915 0 -0.999363 -0.999363 0 -0.0356915 0 0 -1 
0 0 -1 0 0 -1 0 0 -1 
0 0 -1 0 0 -1 0 0 -1 
0 0 -1 0.0356915 0 -0.999363 0.999363 0 -0.0356915 
-0.0369863 0.0369863 -0.998631 -0.999363 0.0356915 0 0 0.0356915 -0.999363 
0 0 -1 0 0 -1 0 0 -1 
0 0 -1 0 0 -1 0 0 -1 
0 0 -1 0.0356915 0 -0.999363 0.999363 0 -0.0356915 
-0.0356915 0.999363 0 -0.693906 0.719607 -0.0257002 -0.719607 0.693906 -0.0257002 
-0.0356915 0 -0.999363 0 0 -1 0 0 -1 
0 0 -1 0 0 -1 0 0 -1 
0 0 -1 0.0356915 0 -0.999363 0.999363 0 -0.0356915 
-0.0356915 0 -0.999363 -0.999363 0 -0.0356915 0 0 -1 
0 0 -1 0 0 -1 0 0 -1 
0 0 -1 0 0 -1 0.0356915 0 -0.999363 
0.999363 0 -0.0356915 -0.0356915 0 -0.999363 -0.999363 0 -0.0356915 
0 0 -1 0 0 -1 0 0 -1 
0 0 -1 0 0 -1 0 0 -1 
0.0356915 0 -0.999363 0.999363 0 -0.0356915 -0.0356915 0 -0.999363 
-0.999363 0 -0.0356915 0 0 -1 0 0 -1 
0 0 -1 0 0 -1 0 0 -1 
0 0 -1 0.0356915 0 -0.999363 0.999363 0 -0.0356915 
-0.0356915 0 -0.999363 -0.999363 0 -0.0356915 0 0 -1 
0 0 -1 0 0 -1 0 0 -1 
0 0 -1 0 0 -1 0.0356915 0 -0.999363 
0.999363 0 -0.0356915 -0.0356915 0 -0.999363 -0.999363 0 -0.0356915 
0 0 -1 0 0 -1 0 0 -1 
0 0 -1 0 0 -1 0 0 -1 
0.0356915 0 -0.999363 0.999363 0 -0.0356915 -0.0356915 0 -0.999363 
-0.999363 0 -0.0356915 0 0 -1 0 0 -1 
0 0 -1 0 0 -1 0 0 -1 
0 0 -1 0.0356688 0.0356688 -0.998727 0.998727 0.0356688 -0.0356688 
-0.0356915 0 -0.999363 -0.999363 0 -0.0356915 0 0 -1 
0 0 -1 0 0 -1 0 0 -1 
0 0 -1 0.0356688 0.0356688 -0.998727 0.706881 0.706881 -0.0252458 
0.706881 0.706881 -0.0252458 -0.0356915 0 -0.999363 -0.719607 -0.693906 -0.0257002 
0 0 -1 0 0 -1 0 0 -1 
0 0 -1 0.0356915 0 -0.999363 0.719607 0.693906 -0.0257002 
0.706881 0.706881 -0.0252458 -0.0356915 0 -0.999363 -0.719607 -0.693906 -0.0257002 
-0.999363 0 -0.0356915 0 0 -1 0 0 -1 
0 0 -1 0 0 -1 0 0 -1 
0.0356915 0 -0.999363 0.999363 0 -0.0356915 -0.584221 0.563356 -0.584221 
-0.584221 0.563356 -0.584221 -0.0356915 0 -0.999363 0 0 -1 
0 0 -1 0 0 -1 0 0 -1 
0.0356915 0 -0.999363 0.999363 0 -0.0356915 -0.0356915 0 -0.999363 
-0.707107 0 -0.707107 0 0 -1 0 0 -1 
0 0 -1 0 0 -1 0.0356915 0 -0.999363 
0.999363 0 -0.0356915 -0.0356915 0 -0.999363 -0.707107 0 -0.707107 
0 0 -1 0 0 -1 0 0 -1 
0 0 -1 0.0356688 0.0356688 -0.998727 0.998727 0.0356688 -0.0356688 
-0.0356688 0.0356688 -0.998727 -0.706881 0.0252458 -0.706881 0 0.0356915 -0.999363 
0 0.0356915 -0.999363 0 0.0356915 -0.999363 0.0356688 0.0356688 -0.998727 
0.706881 0.706881 -0.0252458 0.706881 0.706881 -0.0252458 -0.0356688 0.998727 -0.0356688 
0 0.999363 -0.0356915 0 0.999363 -0.0356915 0 0.999363 -0.0356915 
0.0356688 0.998727 -0.0356688 -0.0356688 -0.0356688 -0.998727 -0.0252458 -0.706881 -0.706881 
-0.706881 -0.0252458 -0.706881 0 -0.707107 -0.707107 0 -0.707107 -0.707107 
0 -0.707107 -0.707107 0 -0.707107 -0.707107 0 -0.707107 -0.707107 
0 -0.707107 -0.707107 0 -0.707107 -0.707107 0 -0.707107 -0.707107 
0.0252458 -0.706881 -0.706881 0.0252458 -0.706881 -0.706881 0.57735 -0.57735 -0.57735 
-0.584221 -0.563356 -0.584221 -0.584221 -0.563356 -0.584221 0.584221 -0.584221 -0.563356 
0.999363 -0.0356915 0 -0.0356688 -0.0356688 -0.998727 -0.0252458 -0.706881 -0.706881 
-0.706881 -0.0252458 -0.706881 -0.563356 -0.584221 -0.584221 -0.563356 -0.584221 -0.584221 
1 0 0 -0.584221 -0.563356 -0.584221 -0.584221 -0.563356 -0.584221 
1 0 0 -0.57735 -0.57735 -0.57735 -0.57735 -0.57735 -0.57735 
-0.998727 -0.0356688 -0.0356688 1 0 0 -1 0 0 
1 0 0 -1 0 0 1 0 0 
-1 0 0 1 0 0 -1 0 0 
1 0 0 -0.999363 0 0.0356915 1 0 0 
-0.999363 0 0.0356915 1 0 0 -0.999363 0 0.0356915 
1 0 0 -0.999363 0 0.0356915 1 0 0 
-0.998727 0.0356688 0.0356688 1 0 0 -0.57735 0.57735 0.57735 
-0.584221 0.584221 0.563356 -0.57735 0.57735 0.57735 1 0 0 
-0.706881 0.706881 0.0252458 -0.719844 0.694136 0 1 0 0 
-1 0 0 1 0 0 -1 0 0 
1 0 0 -1 0 0 1 0 0 
-1 0 0 1 0 0 -1 0 0 
1 0 0 -1 0 0 0.999363 0.0356915 0 
-1 0 0 0.707107 0.707107 0 0.707107 0.707107 0 
-0.719844 -0.694136 0 0.719844 0.694136 0 0.707107 0.707107 0 
-0.707107 -0.707107 0 -0.999363 -0.0356915 0 1 0 0 
-0.584221 0.563356 -0.584221 -0.707107 0 -0.707107 1 0 0 
-0.707107 0 -0.707107 -0.707107 0 -0.707107 1 0 0 
-0.707107 0 -0.707107 -0.707107 0 -0.707107 0.999363 0.0356915 0 
-0.706881 0.0252458 -0.706881 -0.706881 0.0252458 -0.706881 0.707107 0.707107 0 
0.707107 0.707107 0 -0.0252458 0.706881 -0.706881 0 0.719844 -0.694136 
0 0.719844 -0.694136 0 0.719844 -0.694136 0 0.719844 -0.694136 
0.0356915 0.999363 0 -0.0356688 -0.0356688 -0.998727 -0.0356688 -0.998727 -0.0356688 
-0.998727 -0.0356688 -0.0356688 0 -0.0356915 -0.999363 0 -0.999363 -0.0356915 
0 -0.0356915 -0.999363 0 -0.999363 -0.0356915 0.0356688 -0.0356688 -0.998727 
0.0356688 -0.998727 -0.0356688 0.998727 -0.0356688 -0.0356688 -0.0356915 0 -0.999363 
-0.999363 0 -0.0356915 0 0 -1 0 0 -1 
0.0356915 0 -0.999363 0.584221 -0.563356 -0.584221 -0.0356915 0 -0.999363 
-0.999363 0 -0.0356915 0 0 -1 0 0 -1 
0 0 -1 0.563356 -0.584221 -0.584221 0 -0.0356915 -0.999363 
0 -0.0356915 -0.999363 0 -0.707107 -0.707107 0 -0.0356915 -0.999363 
0 -0.707107 -0.707107 0.0356688 -0.0356688 -0.998727 0.0252458 -0.706881 -0.706881 
0.998727 -0.0356688 -0.0356688 -0.0356915 0 -0.999363 -0.707107 0 -0.707107 
0 0 -1 0 0 -1 0 0 -1 
0 0 -1 0 0 -1 0 0 -1 
0.0356915 0 -0.999363 0.999363 0 -0.0356915 -0.0356915 0 -0.999363 
-0.584221 -0.563356 -0.584221 0 -0.694136 -0.719844 0 -0.694136 -0.719844 
0 -0.694136 -0.719844 0 -0.694136 -0.719844 0 -0.694136 -0.719844 
0 -0.694136 -0.719844 0.0356915 0 -0.999363 0.999363 0 -0.0356915 
-0.0356688 -0.0356688 -0.998727 -0.57735 -0.57735 -0.57735 -0.57735 -0.57735 -0.57735 
-0.694136 0 -0.719844 0.584221 -0.563356 -0.584221 0.999363 0 -0.0356915 
-0.0356688 -0.0356688 -0.998727 -0.57735 -0.57735 -0.57735 -0.998727 -0.0356688 -0.0356688 
0 -0.694136 -0.719844 -0.570225 -0.570225 -0.591344 1 0 0 
-0.707107 0 -0.707107 -0.999363 0 -0.0356915 1 0 0 
-0.584221 -0.563356 -0.584221 -0.999363 0 -0.0356915 1 0 0 
-1 0 0 1 0 0 -1 0 0 
1 0 0 -1 0 0 1 0 0 
-1 0 0 1 0 0 -0.999363 0.0356915 0 
1 0 0 -0.0257002 0.719607 0.693906 -0.0257002 0.693906 0.719607 
-0.570225 0.591344 0.570225 -0.570225 0.570225 0.591344 -0.591344 0.570225 0.570225 
1 0 0 -0.0356915 0 0.999363 -0.694136 0 0.719844 
-0.719844 0 0.694136 1 0 0 -0.0356915 0 0.999363 
-0.694136 0 0.719844 -0.719844 0 0.694136 1 0 0 
-0.0356915 0 0.999363 -0.694136 0 0.719844 -0.719844 0 0.694136 
1 0 0 -0.0356688 0.0356688 0.998727 -0.694136 0 0.719844 
-0.719844 0 0.694136 1 0 0 -0.706881 0.0252458 0.706881 
-0.719844 0 0.694136 1 0 0 -1 0 0 
1 0 0 -1 0 0 1 0 0 
-1 0 0 1 0 0 -1 0 0 
1 0 0 -1 0 0 1 0 0 
-0.719844 0 -0.694136 1 0 0 -0.719844 0 -0.694136 
0.999363 0.0356915 0 -0.719844 0 -0.694136 0.584221 0.584221 -0.563356 
0.584221 0.584221 -0.563356 -0.591344 -0.570225 -0.570225 0.719844 0.694136 0 
0.707107 0.707107 0 -0.584221 -0.584221 -0.563356 -0.584221 -0.584221 -0.563356 
1 0 0 -0.706881 -0.0252458 -0.706881 -0.57735 -0.57735 -0.57735 
-0.998727 -0.0356688 -0.0356688 1 0 0 -0.707107 0 -0.707107 
-0.999363 0 -0.0356915 1 0 0 -0.707107 0 -0.707107 
-0.999363 0 -0.0356915 0.999363 0.0356915 0 -0.707107 0 -0.707107 
-0.999363 0 -0.0356915 0.584221 0.584221 -0.563356 0.584221 0.584221 -0.563356 
-0.0356915 0 -0.999363 -0.999363 0 -0.0356915 0 0.694136 -0.719844 
0 0.694136 -0.719844 0 0.694136 -0.719844 0 0.694136 -0.719844 
0.0257002 0.693906 -0.719607 0.719607 0.693906 -0.0257002 0.707107 0.707107 0 
-0.0356915 0 -0.999363 -0.999363 0 -0.0356915 0 0 -1 
0 0 -1 0 0 -1 0 0 -1 
0.0356915 0 -0.999363 0.999363 0 -0.0356915 -0.0356915 0 -0.999363 
-0.999363 0 -0.0356915 0 0 -1 0 0 -1 
0 0 -1 0 0 -1 0.0356915 0 -0.999363 
0.999363 0 -0.0356915 -0.0356915 0 -0.999363 -0.999363 0 -0.0356915 
0 0 -1 0 0 -1 0 0 -1 
0 0 -1 0.0356915 0 -0.999363 0.999363 0 -0.0356915 
-0.0356915 0 -0.999363 -0.999363 0 -0.0356915 0 0 -1 
0 0 -1 0 0 -1 0 0 -1 
0.0356915 0 -0.999363 0.999363 0 -0.0356915 -0.0356915 0 -0.999363 
-0.999363 0 -0.0356915 0 0 -1 0 0 -1 
0 0 -1 0 0 -1 0.0356915 0 -0.999363 
0.999363 0 -0.0356915 -0.0356915 0 -0.999363 -0.999363 0 -0.0356915 
0 0 -1 0 0 -1 0 0 -1 
0 0 -1 0.0356915 0 -0.999363 0.999363 0 -0.0356915 
-0.0356915 0 -0.999363 -0.999363 0 -0.0356915 0 0 -1 
0 0 -1 0 0 -1 0 0 -1 
0.0356915 0 -0.999363 0.999363 0 -0.0356915 -0.0356915 0 -0.999363 
-0.999363 0 -0.0356915 0 0 -1 0 0 -1 
0 0 -1 0 0 -1 0.0356915 0 -0.999363 
0.999363 0 -0.0356915 -0.0356688 0.0356688 -0.998727 -0.998727 0.0356688 -0.0356688 
0 0.0356915 -0.999363 0 0 -1 0 0 -1 
0 0 -1 0.0356915 0 -0.999363 0.999363 0 -0.0356915 
-0.0356688 0.998727 -0.0356688 -0.693906 0.719607 -0.0257002 -0.719607 0.693906 -0.0257002 
-0.0356915 0 -0.999363 0 0 -1 0 0 -1 
0.0356688 0.0356688 -0.998727 0.998727 0.0356688 -0.0356688 -0.0356688 0.0356688 -0.998727 
-0.998727 0.0356688 -0.0356688 0 0.0356915 -0.999363 0.0356688 0.0356688 -0.998727 
0.706881 0.706881 -0.0252458 0.706881 0.706881 -0.0252458 -0.0356688 0.998727 -0.0356688 
0 0.999363 -0.0356915 0.0356688 0.998727 -0.0356688 -0.0356915 -0.999363 0 
-0.999363 -0.0356915 0 0 -1 0 0 -1 0 
0.0257002 -0.719607 -0.693906 0.584221 -0.584221 -0.563356 -1 0 0 
0.563356 -0.584221 -0.584221 0.563356 -0.584221 -0.584221 0 -0.707107 -0.707107 
0 -0.707107 -0.707107 0 -0.707107 -0.707107 0 -0.707107 -0.707107 
0.0252458 -0.706881 -0.706881 0.0252458 -0.706881 -0.706881 0.998727 -0.0356688 -0.0356688 
-0.719844 -0.694136 0 1 0 0 -0.706881 -0.0252458 -0.706881 
-0.706881 -0.706881 -0.0252458 -0.998727 -0.0356688 -0.0356688 1 0 0 
-0.584221 -0.563356 -0.584221 -0.584221 -0.563356 -0.584221 0.719844 0 -0.694136 
-0.57735 -0.57735 -0.57735 -0.57735 -0.57735 -0.57735 -0.998727 -0.0356688 -0.0356688 
0.719844 0 -0.694136 -1 0 0 0.719844 0 -0.694136 
-1 0 0 0.719844 0 -0.694136 -1 0 0 
0.719844 0 -0.694136 -1 0 0 0.719844 0 -0.694136 
-1 0 0 0.719844 0 -0.694136 -1 0 0 
0.719844 0 -0.694136 -1 0 0 0.719844 0 -0.694136 
-0.999363 0.0356915 0 0.719844 0 -0.694136 -0.0356915 0.999363 0 
-0.694136 0.719844 0 -0.719844 0.694136 0 0.719844 0 -0.694136 
-1 0 0 0.719844 0 -0.694136 -1 0 0 
0.719844 0 -0.694136 -1 0 0 0.719844 0 -0.694136 
-1 0 0 0.719844 0 -0.694136 -1 0 0 
0.719844 0 -0.694136 -1 0 0 0.719844 0 -0.694136 
-1 0 0 0.719844 0 -0.694136 -1 0 0 
0.719844 0 -0.694136 -1 0 0 0.719844 0 -0.694136 
-0.719844 -0.694136 0 0.719844 0 -0.694136 -0.706881 -0.0252458 -0.706881 
-0.706881 -0.706881 -0.0252458 -0.998727 -0.0356688 -0.0356688 0.719844 0 -0.694136 
-0.707107 0 -0.707107 -0.707107 0 -0.707107 0.719844 0 -0.694136 
-0.707107 0 -0.707107 -0.707107 0 -0.707107 0.57735 0.57735 -0.57735 
0.706881 0.0252458 -0.706881 -0.584221 -0.563356 -0.584221 -0.584221 -0.563356 -0.584221 
0.591344 0.570225 -0.570225 0.570225 0.591344 -0.570225 0.0252458 0.706881 -0.706881 
-0.57735 -0.57735 -0.57735 -0.57735 -0.57735 -0.57735 -0.998727 -0.0356688 -0.0356688 
0.719844 0 -0.694136 -1 0 0 0.719844 0 -0.694136 