# vtk DataFile Version 3.0
vtk output
ASCII
DATASET POLYDATA
POINTS 5324 float
141 132 69.0556 141 131.056 70 140.056 132 70 
142 132 69.0556 142 131.056 70 142.944 132 70 
141 133 69.0556 140.056 133 70 142 133 69.0556 
142.944 133 70 141 134 69.0556 140.056 134 70 
142 134 69.0556 142.944 134 70 141 135 69.0556 
140.056 135 70 142 135 69.0556 142.944 135 70 
141 136 69.0556 140.056 136 70 142 136 69.0556 
143 135.056 70 143 136 69.0556 144 136 69.0556 
144 135.056 70 144.944 136 70 141 137 69.0556 
140.056 137 70 142 137 69.0556 143 137 69.0556 
144 137 69.0556 144.944 137 70 141 137.944 70 
142 137.944 70 142.056 138 70 143 138 69.0556 
144 138 69.0556 144.944 138 70 143 139 69.0556 
142.056 139 70 143.944 139 70 144 138.944 70 
143 139.944 70 147 140 69.0556 147 139.056 70 
146.056 140 70 148 140 69.0556 148 139.056 70 
149 140 69.0556 149 139.056 70 150 140 69.0556 
150 139.056 70 150.944 140 70 147 141 69.0556 
146.056 141 70 148 141 69.0556 149 141 69.0556 
149.944 141 70 150 140.944 70 147 141.944 70 
148 141.944 70 149 141.944 70 141 129 70.0556 
141 128.056 71 140.056 129 71 142 129 70.0556 
142 128.056 71 142.944 129 71 140 130 70.0556 
140 129.056 71 139.056 130 71 141 129.944 71 
140.944 130 71 142 129.944 71 140 131 70.0556 
139.056 131 71 141 130.056 71 141 131 70.0556 
142 131 70.0556 142 130.056 71 142.944 131 71 
140 132 70.0556 139.056 132 71 142.944 132 71 
140 133 70.0556 139.056 133 71 142.944 133 71 
140 134 70.0556 139.056 134 71 142.944 134 71 
140 135 70.0556 139.056 135 71 143 134.056 71 
143 135 70.0556 144 135 70.0556 144 134.056 71 
144.944 135 71 140 136 70.0556 139.056 136 71 
144.944 136 71 140 136.944 71 140.056 137 71 
144.944 137 71 141 137.944 71 142 137.944 71 
142.056 138 71 144.944 138 71 142.056 139 71 
143.944 139 71 144 138.944 71 146 139 70.0556 
146 138.056 71 145.056 139 71 147 139 70.0556 
147 138.056 71 148 139 70.0556 148 138.056 71 
149 139 70.0556 149 138.056 71 150 139 70.0556 
150 138.056 71 150.944 139 71 143 139.944 71 
146 139.944 71 146.056 140 71 150.944 140 71 
146.056 141 71 149.944 141 71 150 140.944 71 
147 141.944 71 148 141.944 71 149 141.944 71 
141 126 71.0556 141 125.056 72 140.056 126 72 
142 126 71.0556 142 125.056 72 142.944 126 72 
141 127 71.0556 140.056 127 72 142 127 71.0556 
142.944 127 72 141 128 71.0556 140.056 128 72 
142 128 71.0556 142.944 128 72 140 129 71.0556 
140 128.056 72 139.056 129 72 142.944 129 72 
139 130 71.0556 139 129.056 72 138.056 130 72 
141 130 71.0556 142 130 71.0556 143 129.056 72 
143 130 71.0556 144 130 71.0556 144 129.056 72 
144.944 130 72 139 131 71.0556 138.056 131 72 
143 131 71.0556 144 131 71.0556 144.944 131 72 
139 132 71.0556 138.056 132 72 143 132 71.0556 
144 132 71.0556 144.944 132 72 139 133 71.0556 
138.056 133 72 143 133 71.0556 144 133 71.0556 
144.944 133 72 139 134 71.0556 138.056 134 72 
143 134 71.0556 144 134 71.0556 145 133.056 72 
145 134 71.0556 146 134 71.0556 146 133.056 72 
146.944 134 72 139 135 71.0556 138.056 135 72 
145 135 71.0556 146 135 71.0556 146.944 135 72 
139 135.944 72 140 135.944 72 140 136 71.9444 
140.056 136 72 145 136 71.0556 146 136 71.0556 
147 135.056 72 147 136 71.0556 148 136 71.0556 
148 135.056 72 149 136 71.0556 149 135.056 72 
150 136 71.0556 150 135.056 72 150.944 136 72 
140.056 137 72 145 137 71.0556 146 137 71.0556 
147 137 71.0556 148 137 71.0556 149 137 71.0556 
150 137 71.0556 150.944 137 72 141 137.944 72 
142 137.944 72 142.056 138 72 145 138 71.0556 
146 138 71.0556 147 138 71.0556 148 138 71.0556 
149 138 71.0556 150 138 71.0556 150.944 138 72 
142.056 139 72 144 139 71.0556 145 139 71.0556 
150.944 139 72 143 139.944 72 144 139.944 72 
145 139.944 72 146 139.944 72 146.056 140 72 
150.944 140 72 146.056 141 72 149.944 141 72 
150 140.944 72 147 141.944 72 148 141.944 72 
149 141.944 72 140 125 72.0556 140 124.056 73 
139.056 125 73 140.944 125 73 140 126 72.0556 
139.056 126 73 141 125.056 73 142 125.056 73 
142.944 126 73 140 127 72.0556 139.056 127 73 
142.944 127 73 140 128 72.0556 139.056 128 73 
142.944 128 73 139 129 72.0556 139 128.056 73 
138.056 129 73 143 128.056 73 143 129 72.0556 
144 129 72.0556 144 128.056 73 144.944 129 73 
138.056 130 73 144.944 130 73 138.056 131 73 
144.944 131 73 138.056 132 73 144.944 132 73 
138.056 133 73 145 132.056 73 145 133 72.0556 
146 133 72.0556 146 132.056 73 146.944 133 73 
138.056 134 73 146.944 134 73 138.056 135 73 
147 134.056 73 147 135 72.0556 148 135 72.0556 
148 134.056 73 149 135 72.0556 149 134.056 73 
149.944 135 73 139 135.944 73 140 135.944 73 
140.056 136 73 150 135.056 73 150.944 136 73 
140.056 137 73 150.944 137 73 141 137.944 73 
142 137.944 73 142.056 138 73 150.944 138 73 
142.056 139 73 150.944 139 73 143 139.944 73 
144 139.944 73 145 139.944 73 146 139.944 73 
146.056 140 73 150 140 72.9444 149.944 140 73 
150 139.944 73 147 140.944 73 147 141 72.9444 
148 140.944 73 148 141 72.9444 149 140.944 73 
149 141 72.9444 139 124 73.0556 139 123.056 74 
138.056 124 74 140 124 73.0556 140 123.056 74 
140.944 124 74 139 125 73.0556 138.056 125 74 
140.944 125 74 139 126 73.0556 138.056 126 74 
141 125.056 74 142 125.056 74 142.944 126 74 
139 127 73.0556 138.056 127 74 142.944 127 74 
139 128 73.0556 138.056 128 74 143 127.056 74 
143 128 73.0556 144 128 73.0556 144 127.056 74 
145 128 73.0556 145 127.056 74 146 128 73.0556 
146 127.056 74 146.944 128 74 138.056 129 74 
145 129 73.0556 146 129 73.0556 146.944 129 74 
138.056 130 74 145 130 73.0556 146 130 73.0556 
147 129.056 74 147 130 73.0556 148 130 73.0556 
148 129.056 74 148.944 130 74 138.056 131 74 
145 131 73.0556 146 131 73.0556 147 131 73.0556 
148 131 73.0556 148.944 131 74 138.056 132 74 
145 132 73.0556 146 132 73.0556 147 132 73.0556 
148 132 73.0556 148.944 132 74 138.056 133 74 
147 133 73.0556 148 133 73.0556 148.944 133 74 
138.056 134 74 147 134 73.0556 148 134 73.0556 
149 133.056 74 149 134 73.0556 150 134 73.0556 
150 133.056 74 150.944 134 74 138.056 135 74 
150 135 73.0556 150.944 135 74 139 135.944 74 
140 135.944 74 140.056 136 74 151 136 73.0556 
151 135.056 74 152 136 73.0556 152 135.056 74 
153 136 73.0556 153 135.056 74 154 136 73.0556 
154 135.056 74 154.944 136 74 140.056 137 74 
151 137 73.0556 152 137 73.0556 153 137 73.0556 
153.944 137 74 154 136.944 74 141 137.944 74 
142 137.944 74 142.056 138 74 150.944 138 74 
151 137.944 74 152 137.944 74 153 137.944 74 
142.056 139 74 150 139 73.9444 149.944 139 74 
150 138.944 74 143 139.944 74 144 139.944 74 
145 139.944 74 146 139.944 74 147 139.944 74 
147 140 73.9444 148 139.944 74 148 140 73.9444 
149 139.944 74 149 140 73.9444 140 122 74.0556 
140 121.056 75 139.056 122 75 140.944 122 75 
138 123 74.0556 138 122.056 75 137.056 123 75 
139 123 74.0556 139 122.056 75 140 123 74.0556 
140.944 123 75 138 124 74.0556 137.056 124 75 
140.944 124 75 138 125 74.0556 137.056 125 75 
141 124.056 75 141 125 74.0556 141.944 125 75 
138 126 74.0556 137.056 126 75 142 125.056 75 
142.944 126 75 138 127 74.0556 137.056 127 75 
143 126.056 75 143 127 74.0556 144 127 74.0556 
144 126.056 75 145 127 74.0556 145 126.056 75 
146 127 74.0556 146 126.056 75 146.944 127 75 
138 127.944 75 138.056 128 75 146.944 128 75 
138.056 129 75 147 128.056 75 147 129 74.0556 
148 129 74.0556 148 128.056 75 148.944 129 75 
138.056 130 75 148.944 130 75 138.056 131 75 
148.944 131 75 138.056 132 75 148.944 132 75 
138.056 133 75 149 132.056 75 149 133 74.0556 
150 133 74.0556 150 132.056 75 150.944 133 75 
138.056 134 75 150.944 134 75 139 134.944 75 
139 135 74.9444 139.056 135 75 151 134.056 75 
151 135 74.0556 152 135 74.0556 152 134.056 75 
153 135 74.0556 153 134.056 75 154 135 74.0556 
154 134.056 75 155 135 74.0556 155 134.056 75 
155.944 135 75 140 135.944 75 140.056 136 75 
155 135.944 75 154.944 136 75 141 136.944 75 
141 137 74.9444 142 136.944 75 142 137 74.9444 
142.056 137 75 154 137 74.0556 154.944 137 75 
142.056 138 75 150 138 74.9444 149.944 138 75 
150 137.944 75 151 137.944 75 152 137.944 75 
153 137.944 75 154 137.944 75 143 138.944 75 
143 139 74.9444 144 138.944 75 144 139 74.9444 
145 138.944 75 145 139 74.9444 146 138.944 75 
146 139 74.9444 147 138.944 75 147 139 74.9444 
148 138.944 75 148 139 74.9444 149 138.944 75 
149 139 74.9444 138 121 75.0556 138 120.056 76 
137.056 121 76 138.944 121 76 140 121 75.0556 
140 120.056 76 139.056 121 76 140.944 121 76 
137 122 75.0556 137 121.056 76 136.056 122 76 
138 122 75.0556 139 121.056 76 139 122 75.0556 
141 122 75.0556 141 121.056 76 142 122 75.0556 
142 121.056 76 142.944 122 76 137 123 75.0556 
136.056 123 76 141 123 75.0556 142 123 75.0556 
142.944 123 76 137 124 75.0556 136.056 124 76 
141 124 75.0556 142 124 75.0556 142.944 124 76 
137 125 75.0556 136.056 125 76 142 125 75.0556 
142.944 125 76 137 126 75.0556 136.056 126 76 
143 126 75.0556 143 125.056 76 144 126 75.0556 
144 125.056 76 145 126 75.0556 145 125.056 76 
146 126 75.0556 146 125.056 76 146.944 126 76 
137 127 75.0556 136.056 127 76 146.944 127 76 
137 127.944 76 138 127.944 76 138.056 128 76 
147 127.056 76 147 128 75.0556 148 128 75.0556 
148 127.056 76 148.944 128 76 138.056 129 76 
148.944 129 76 138.056 130 76 149 129.056 76 
149 130 75.0556 150 130 75.0556 150 129.056 76 
151 130 75.0556 151 129.056 76 152 130 75.0556 
152 129.056 76 152.944 130 76 138.056 131 76 
149 131 75.0556 150 131 75.0556 151 131 75.0556 
152 131 75.0556 152.944 131 76 156 131 75.0556 
156 130.056 76 155.056 131 76 156.944 131 76 
138.056 132 76 149 132 75.0556 150 132 75.0556 
151 132 75.0556 152 132 75.0556 153 131.056 76 
153 132 75.0556 154 132 75.0556 154 131.056 76 
155 132 75.0556 155 131.056 76 156 132 75.0556 
157 131.056 76 157 132 75.0556 158 132 75.0556 
158 131.056 76 158.944 132 76 138.056 133 76 
151 133 75.0556 152 133 75.0556 153 133 75.0556 
154 133 75.0556 155 133 75.0556 156 133 75.0556 
157 133 75.0556 157.944 133 76 158 132.944 76 
139 133.944 76 139 134 75.9444 140 133.944 76 
140 134 75.9444 140.056 134 76 151 134 75.0556 
[...]
POINT_DATA 5324
SCALARS scalars float
LOOKUP_TABLE default
1 1 1 1 1 1 1 1 1 
1 1 1 1 1 1 1 1 1 
1 1 1 1 1 1 1 1 1 
1 1 1 1 1 1 1 1 1 
1 1 1 1 1 1 1 1 1 
1 1 1 1 1 1 1 1 1 
1 1 1 1 1 1 1 1 1 
1 1 1 1 1 1 1 1 1 
1 1 1 1 1 1 1 1 1 
1 1 1 1 1 1 1 1 1 
1 1 1 1 1 1 1 1 1 
1 1 1 1 1 1 1 1 1 
1 1 1 1 1 1 1 1 1 
1 1 1 1 1 1 1 1 1 
1 1 1 1 1 1 1 1 1 
1 1 1 1 1 1 1 1 1 
1 1 1 1 1 1 1 1 1 
1 1 1 1 1 1 1 1 1 
1 1 1 1 1 1 1 1 1 
1 1 1 1 1 1 1 1 1 
1 1 1 1 1 1 1 1 1 
1 1 1 1 1 1 1 1 1 
1 1 1 1 1 1 1 1 1 
1 1 1 1 1 1 1 1 1 
1 1 1 1 1 1 1 1 1 
1 1 1 1 1 1 1 1 1 
1 1 1 1 1 1 1 1 1 
1 1 1 1 1 1 1 1 1 
1 1 1 1 1 1 1 1 1 
1 1 1 1 1 1 1 1 1 
1 1 1 1 1 1 1 1 1 
1 1 1 1 1 1 1 1 1 
1 1 1 1 1 1 1 1 1 
1 1 1 1 1 1 1 1 1 
1 1 1 1 1 1 1 1 1 
1 1 1 1 1 1 1 1 1 
1 1 1 1 1 1 1 1 1 
1 1 1 1 1 1 1 1 1 
1 1 1 1 1 1 1 1 1 
1 1 1 1 1 1 1 1 1 
1 1 1 1 1 1 1 1 1 
1 1 1 1 1 1 1 1 1 
1 1 1 1 1 1 1 1 1 
1 1 1 1 1 1 1 1 1 
1 1 1 1 1 1 1 1 1 
1 1 1 1 1 1 1 1 1 
1 1 1 1 1 1 1 1 1 
1 1 1 1 1 1 1 1 1 
1 1 1 1 1 1 1 1 1 
1 1 1 1 1 1 1 1 1 
1 1 1 1 1 1 1 1 1 
1 1 1 1 1 1 1 1 1 
1 1 1 1 1 1 1 1 1 
1 1 1 1 1 1 1 1 1 
1 1 1 1 1 1 1 1 1 
1 1 1 1 1 1 1 1 1 
1 1 1 1 1 1 1 1 1 
1 1 1 1 1 1 1 1 1 
1 1 1 1 1 1 1 1 1 
1 1 1 1 1 1 1 1 1 
1 1 1 1 1 1 1 1 1 
1 1 1 1 1 1 1 1 1 
1 1 1 1 1 1 1 1 1 
1 1 1 1 1 1 1 1 1 
1 1 1 1 1 1 1 1 1 
1 1 1 1 1 1 1 1 1 
1 1 1 1 1 1 1 1 1 
1 1 1 1 1 1 1 1 1 
1 1 1 1 1 1 1 1 1 
1 1 1 1 1 1 1 1 1 
1 1 1 1 1 1 1 1 1 
1 1 1 1 1 1 1 1 1 
1 1 1 1 1 1 1 1 1 
1 1 1 1 1 1 1 1 1 
1 1 1 1 1 1 1 1 1 
1 1 1 1 1 1 1 1 1 
1 1 1 1 1 1 1 1 1 
1 1 1 1 1 1 1 1 1 
1 1 1 1 1 1 1 1 1 
1 1 1 1 1 1 1 1 1 
1 1 1 1 1 1 1 1 1 
1 1 1 1 1 1 1 1 1 
1 1 1 1 1 1 1 1 1 
1 1 1 1 1 1 1 1 1 
1 1 1 1 1 1 1 1 1 
1 1 1 1 1 1 1 1 1 
1 1 1 1 1 1 1 1 1 
1 1 1 1 1 1 1 1 1 
1 1 1 1 1 1 1 1 1 
1 1 1 1 1 1 1 1 1 
1 1 1 1 1 1 1 1 1 
1 1 1 1 1 1 1 1 1 
1 1 1 1 1 1 1 1 1 
1 1 1 1 1 1 1 1 1 
1 1 1 1 1 1 1 1 1 
1 1 1 1 1 1 1 1 1 
1 1 1 1 1 1 1 1 1 
1 1 1 1 1 1 1 1 1 
1 1 1 1 1 1 1 1 1 
1 1 1 1 1 1 1 1 1 
1 1 1 1 1 1 1 1 1 
1 1 1 1 1 1 1 1 1 
1 1 1 1 1 1 1 1 1 
1 1 1 1 1 1 1 1 1 
1 1 1 1 1 1 1 1 1 
1 1 1 1 1 1 1 1 1 
1 1 1 1 1 1 1 1 1 
1 1 1 1 1 1 1 1 1 
1 1 1 1 1 1 1 1 1 
1 1 1 1 1 1 1 1 1 
1 1 1 1 1 1 1 1 1 
1 1 1 1 1 1 1 1 1 
1 1 1 1 1 1 1 1 1 
1 1 1 1 1 1 1 1 1 
1 1 1 1 1 1 1 1 1 
1 1 1 1 1 1 1 1 1 
1 1 1 1 1 1 1 1 1 
1 1 1 1 1 1 1 1 1 
1 1 1 1 1 1 1 1 1 
1 1 1 1 1 1 1 1 1 
1 1 1 1 1 1 1 1 1 
1 1 1 1 1 1 1 1 1 
1 1 1 1 1 1 1 1 1 
1 1 1 1 1 1 1 1 1 
1 1 1 1 1 1 1 1 1 
1 1 1 1 1 1 1 1 1 
1 1 1 1 1 1 1 1 1 
1 1 1 1 1 1 1 1 1 
1 1 1 1 1 1 1 1 1 
1 1 1 1 1 1 1 1 1 
1 1 1 1 1 1 1 1 1 
1 1 1 1 1 1 1 1 1 
1 1 1 1 1 1 1 1 1 
1 1 1 1 1 1 1 1 1 
1 1 1 1 1 1 1 1 1 
1 1 1 1 1 1 1 1 1 
1 1 1 1 1 1 1 1 1 
1 1 1 1 1 1 1 1 1 
1 1 1 1 1 1 1 1 1 
1 1 1 1 1 1 1 1 1 
1 1 1 1 1 1 1 1 1 
1 1 1 1 1 1 1 1 1 
1 1 1 1 1 1 1 1 1 
1 1 1 1 1 1 1 1 1 
1 1 1 1 1 1 1 1 1 
1 1 1 1 1 1 1 1 1 
1 1 1 1 1 1 1 1 1 
1 1 1 1 1 1 1 1 1 
1 1 1 1 1 1 1 1 1 
1 1 1 1 1 1 1 1 1 
1 1 1 1 1 1 1 1 1 
1 1 1 1 1 1 1 1 1 
1 1 1 1 1 1 1 1 1 
1 1 1 1 1 1 1 1 1 
1 1 1 1 1 1 1 1 1 
1 1 1 1 1 1 1 1 1 
1 1 1 1 1 1 1 1 1 
1 1 1 1 1 1 1 1 1 
1 1 1 1 1 1 1 1 1 
1 1 1 1 1 1 1 1 1 
1 1 1 1 1 1 1 1 1 
1 1 1 1 1 1 1 1 1 
1 1 1 1 1 1 1 1 1 
1 1 1 1 1 1 1 1 1 
1 1 1 1 1 1 1 1 1 
1 1 1 1 1 1 1 1 1 
1 1 1 1 1 1 1 1 1 
1 1 1 1 1 1 1 1 1 
1 1 1 1 1 1 1 1 1 
1 1 1 1 1 1 1 1 1 
1 1 1 1 1 1 1 1 1 
1 1 1 1 1 1 1 1 1 
1 1 1 1 1 1 1 1 1 
1 1 1 1 1 1 1 1 1 
1 1 1 1 1 1 1 1 1 
1 1 1 1 1 1 1 1 1 
1 1 1 1 1 1 1 1 1 
1 1 1 1 1 1 1 1 1 
1 1 1 1 1 1 1 1 1 
1 1 1 1 1 1 1 1 1 
1 1 1 1 1 1 1 1 1 
1 1 1 1 1 1 1 1 1 
1 1 1 1 1 1 1 1 1 
1 1 1 1 1 1 1 1 1 
1 1 1 1 1 1 1 1 1 
1 1 1 1 1 1 1 1 1 
1 1 1 1 1 1 1 1 1 
1 1 1 1 1 1 1 1 1 
1 1 1 1 1 1 1 1 1 
1 1 1 1 1 1 1 1 1 
1 1 1 1 1 1 1 1 1 
1 1 1 1 1 1 1 1 1 
1 1 1 1 1 1 1 1 1 
1 1 1 1 1 1 1 1 1 
1 1 1 1 1 1 1 1 1 
1 1 1 1 1 1 1 1 1 
1 1 1 1 1 1 1 1 1 
1 1 1 1 1 1 1 1 1 
1 1 1 1 1 1 1 1 1 
1 1 1 1 1 1 1 1 1 
1 1 1 1 1 1 1 1 1 
1 1 1 1 1 1 1 1 1 
1 1 1 1 1 1 1 1 1 
1 1 1 1 1 1 1 1 1 
1 1 1 1 1 1 1 1 1 
1 1 1 1 1 1 1 1 1 
1 1 1 1 1 1 1 1 1 
1 1 1 1 1 1 1 1 1 
1 1 1 1 1 1 1 1 1 
1 1 1 1 1 1 1 1 1 
1 1 1 1 1 1 1 1 1 
1 1 1 1 1 1 1 1 1 
1 1 1 1 1 1 1 1 1 
1 1 1 1 1 1 1 1 1 
1 1 1 1 1 1 1 1 1 
1 1 1 1 1 1 1 1 1 
1 1 1 1 1 1 1 1 1 
1 1 1 1 1 1 1 1 1 
1 1 1 1 1 1 1 1 1 
1 1 1 1 1 1 1 1 1 
1 1 1 1 1 1 1 1 1 
1 1 1 1 1 1 1 1 1 
1 1 1 1 1 1 1 1 1 
1 1 1 1 1 1 1 1 1 
1 1 1 1 1 1 1 1 1 
1 1 1 1 1 1 1 1 1 
1 1 1 1 1 1 1 1 1 
1 1 1 1 1 1 1 1 1 
1 1 1 1 1 1 1 1 1 
1 1 1 1 1 1 1 1 1 
1 1 1 1 1 1 1 1 1 
1 1 1 1 1 1 1 1 1 
1 1 1 1 1 1 1 1 1 
1 1 1 1 1 1 1 1 1 
1 1 1 1 1 1 1 1 1 
1 1 1 1 1 1 1 1 1 
1 1 1 1 1 1 1 1 1 
1 1 1 1 1 1 1 1 1 
1 1 1 1 1 1 1 1 1 
1 1 1 1 1 1 1 1 1 
1 1 1 1 1 1 1 1 1 
1 1 1 1 1 1 1 1 1 
1 1 1 1 1 1 1 1 1 
1 1 1 1 1 1 1 1 1 
1 1 1 1 1 1 1 1 1 
1 1 1 1 1 1 1 1 1 
1 1 1 1 1 1 1 1 1 
1 1 1 1 1 1 1 1 1 
1 1 1 1 1 1 1 1 1 
1 1 1 1 1 1 1 1 1 
1 1 1 1 1 1 1 1 1 
1 1 1 1 1 1 1 1 1 
1 1 1 1 1 1 1 1 1 
1 1 1 1 1 1 1 1 1 
1 1 1 1 1 1 1 1 1 
1 1 1 1 1 1 1 1 1 
1 1 1 1 1 1 1 1 1 
1 1 1 1 1 1 1 1 1 
1 1 1 1 1 1 1 1 1 
1 1 1 1 1 1 1 1 1 
1 1 1 1 1 1 1 1 1 
1 1 1 1 1 1 1 1 1 
1 1 1 1 1 1 1 1 1 
1 1 1 1 1 1 1 1 1 
1 1 1 1 1 1 1 1 1 
1 1 1 1 1 1 1 1 1 
1 1 1 1 1 1 1 1 1 
1 1 1 1 1 1 1 1 1 
1 1 1 1 1 1 1 1 1 
1 1 1 1 1 1 1 1 1 
1 1 1 1 1 1 1 1 1 
1 1 1 1 1 1 1 1 1 
1 1 1 1 1 1 1 1 1 
1 1 1 1 1 1 1 1 1 
1 1 1 1 1 1 1 1 1 
1 1 1 1 1 1 1 1 1 
1 1 1 1 1 1 1 1 1 
1 1 1 1 1 1 1 1 1 
1 1 1 1 1 1 1 1 1 
1 1 1 1 1 1 1 1 1 
1 1 1 1 1 1 1 1 1 
1 1 1 1 1 1 1 1 1 
1 1 1 1 1 1 1 1 1 
1 1 1 1 1 1 1 1 1 
1 1 1 1 1 1 1 1 1 
1 1 1 1 1 1 1 1 1 
1 1 1 1 1 1 1 1 1 
1 1 1 1 1 1 1 1 1 
1 1 1 1 1 1 1 1 1 
1 1 1 1 1 1 1 1 1 
1 1 1 1 1 1 1 1 1 
1 1 1 1 1 1 1 1 1 
1 1 1 1 1 1 1 1 1 
1 1 1 1 1 1 1 1 1 
1 1 1 1 1 1 1 1 1 
1 1 1 1 1 1 1 1 1 
1 1 1 1 1 1 1 1 1 
1 1 1 1 1 1 1 1 1 
1 1 1 1 1 1 1 1 1 
1 1 1 1 1 1 1 1 1 
1 1 1 1 1 1 1 1 1 
1 1 1 1 1 1 1 1 1 
1 1 1 1 1 1 1 1 1 
1 1 1 1 1 1 1 1 1 
1 1 1 1 1 1 1 1 1 
1 1 1 1 1 1 1 1 1 
1 1 1 1 1 1 1 1 1 
1 1 1 1 1 1 1 1 1 
1 1 1 1 1 1 1 1 1 
1 1 1 1 1 1 1 1 1 
1 1 1 1 1 1 1 1 1 
1 1 1 1 1 1 1 1 1 
1 1 1 1 1 1 1 1 1 
1 1 1 1 1 1 1 1 1 
1 1 1 1 1 1 1 1 1 
1 1 1 1 1 1 1 1 1 
1 1 1 1 1 1 1 1 1 
1 1 1 1 1 1 1 1 1 
1 1 1 1 1 1 1 1 1 
1 1 1 1 1 1 1 1 1 
1 1 1 1 1 1 1 1 1 
1 1 1 1 1 1 1 1 1 
1 1 1 1 1 1 1 1 1 
1 1 1 1 1 1 1 1 1 
1 1 1 1 1 1 1 1 1 
1 1 1 1 1 1 1 1 1 
1 1 1 1 1 1 1 1 1 
1 1 1 1 1 1 1 1 1 
1 1 1 1 1 1 1 1 1 
1 1 1 1 1 1 1 1 1 
1 1 1 1 1 1 1 1 1 
1 1 1 1 1 1 1 1 1 
1 1 1 1 1 1 1 1 1 
1 1 1 1 1 1 1 1 1 
1 1 1 1 1 1 1 1 1 
1 1 1 1 1 1 1 1 1 
1 1 1 1 1 1 1 1 1 
1 1 1 1 1 1 1 1 1 
1 1 1 1 1 1 1 1 1 
1 1 1 1 1 1 1 1 1 
1 1 1 1 1 1 1 1 1 
1 1 1 1 1 1 1 1 1 
1 1 1 1 1 1 1 1 1 
1 1 1 1 1 1 1 1 1 
1 1 1 1 1 1 1 1 1 
1 1 1 1 1 1 1 1 1 
1 1 1 1 1 1 1 1 1 
1 1 1 1 1 1 1 1 1 
1 1 1 1 1 1 1 1 1 
1 1 1 1 1 1 1 1 1 
1 1 1 1 1 1 1 1 1 
1 1 1 1 1 1 1 1 1 
1 1 1 1 1 1 1 1 1 
1 1 1 1 1 1 1 1 1 
1 1 1 1 1 1 1 1 1 
1 1 1 1 1 1 1 1 1 
1 1 1 1 1 1 1 1 1 
1 1 1 1 1 1 1 1 1 
1 1 1 1 1 1 1 1 1 
1 1 1 1 1 1 1 1 1 
1 1 1 1 1 1 1 1 1 
1 1 1 1 1 1 1 1 1 
1 1 1 1 1 1 1 1 1 
1 1 1 1 1 1 1 1 1 
1 1 1 1 1 1 1 1 1 
1 1 1 1 1 1 1 1 1 
1 1 1 1 1 1 1 1 1 
1 1 1 1 1 1 1 1 1 
1 1 1 1 1 1 1 1 1 
1 1 1 1 1 1 1 1 1 
1 1 1 1 1 1 1 1 1 
1 1 1 1 1 1 1 1 1 
1 1 1 1 1 1 1 1 1 
1 1 1 1 1 1 1 1 1 
1 1 1 1 1 1 1 1 1 
1 1 1 1 1 1 1 1 1 
1 1 1 1 1 1 1 1 1 
1 1 1 1 1 1 1 1 1 
1 1 1 1 1 1 1 1 1 
1 1 1 1 1 1 1 1 1 
1 1 1 1 1 1 1 1 1 
1 1 1 1 1 1 1 1 1 
1 1 1 1 1 1 1 1 1 
1 1 1 1 1 1 1 1 1 
1 1 1 1 1 1 1 1 1 
1 1 1 1 1 1 1 1 1 
1 1 1 1 1 1 1 1 1 
1 1 1 1 1 1 1 1 1 
1 1 1 1 1 1 1 1 1 
1 1 1 1 1 1 1 1 1 
1 1 1 1 1 1 1 1 1 
1 1 1 1 1 1 1 1 1 
1 1 1 1 1 1 1 1 1 
1 1 1 1 1 1 1 1 1 
1 1 1 1 1 1 1 1 1 
1 1 1 1 1 1 1 1 1 
1 1 1 1 1 1 1 1 1 
1 1 1 1 1 1 1 1 1 
1 1 1 1 1 1 1 1 1 
1 1 1 1 1 1 1 1 1 
1 1 1 1 1 1 1 1 1 
1 1 1 1 1 1 1 1 1 
1 1 1 1 1 1 1 1 1 
1 1 1 1 1 1 1 1 1 
1 1 1 1 1 1 1 1 1 
1 1 1 1 1 1 1 1 1 
1 1 1 1 1 1 1 1 1 
1 1 1 1 1 1 1 1 1 
1 1 1 1 1 1 1 1 1 
1 1 1 1 1 1 1 1 1 
1 1 1 1 1 1 1 1 1 
1 1 1 1 1 1 1 1 1 
1 1 1 1 1 1 1 1 1 
1 1 1 1 1 1 1 1 1 
1 1 1 1 1 1 1 1 1 
1 1 1 1 1 1 1 1 1 
1 1 1 1 1 1 1 1 1 
1 1 1 1 1 1 1 1 1 
1 1 1 1 1 1 1 1 1 
1 1 1 1 1 1 1 1 1 
1 1 1 1 1 1 1 1 1 
1 1 1 1 1 1 1 1 1 
1 1 1 1 1 1 1 1 1 
1 1 1 1 1 1 1 1 1 
1 1 1 1 1 1 1 1 1 
1 1 1 1 1 1 1 1 1 
1 1 1 1 1 1 1 1 1 
1 1 1 1 1 1 1 1 1 
1 1 1 1 1 1 1 1 1 
1 1 1 1 1 1 1 1 1 
1 1 1 1 1 1 1 1 1 
1 1 1 1 1 1 1 1 1 
1 1 1 1 1 1 1 1 1 
1 1 1 1 1 1 1 1 1 
1 1 1 1 1 1 1 1 1 
1 1 1 1 1 1 1 1 1 
1 1 1 1 1 1 1 1 1 
1 1 1 1 1 1 1 1 1 
1 1 1 1 1 1 1 1 1 
1 1 1 1 1 1 1 1 1 
1 1 1 1 1 1 1 1 1 
1 1 1 1 1 1 1 1 1 
1 1 1 1 1 1 1 1 1 
1 1 1 1 1 1 1 1 1 
1 1 1 1 1 1 1 1 1 
1 1 1 1 1 1 1 1 1 
1 1 1 1 1 1 1 1 1 
1 1 1 1 1 1 1 1 1 
1 1 1 1 1 1 1 1 1 
1 1 1 1 1 1 1 1 1 
1 1 1 1 1 1 1 1 1 
1 1 1 1 1 1 1 1 1 
1 1 1 1 1 1 1 1 1 
1 1 1 1 1 1 1 1 1 
1 1 1 1 1 1 1 1 1 
1 1 1 1 1 1 1 1 1 
1 1 1 1 1 1 1 1 1 
1 1 1 1 1 1 1 1 1 
1 1 1 1 1 1 1 1 1 
1 1 1 1 1 1 1 1 1 
1 1 1 1 1 1 1 1 1 
1 1 1 1 1 1 1 1 1 
1 1 1 1 1 1 1 1 1 
1 1 1 1 1 1 1 1 1 
1 1 1 1 1 1 1 1 1 
1 1 1 1 1 1 1 1 1 
1 1 1 1 1 1 1 1 1 
1 1 1 1 1 1 1 1 1 
1 1 1 1 1 1 1 1 1 
1 1 1 1 1 1 1 1 1 
1 1 1 1 1 1 1 1 1 
1 1 1 1 1 1 1 1 1 
1 1 1 1 1 1 1 1 1 
1 1 1 1 1 1 1 1 1 
1 1 1 1 1 1 1 1 1 
1 1 1 1 1 1 1 1 1 
1 1 1 1 1 1 1 1 1 
1 1 1 1 1 1 1 1 1 
1 1 1 1 1 1 1 1 1 
1 1 1 1 1 1 1 1 1 
1 1 1 1 1 1 1 1 1 
1 1 1 1 1 1 1 1 1 
1 1 1 1 1 1 1 1 1 
1 1 1 1 1 1 1 1 1 
1 1 1 1 1 1 1 1 1 
1 1 1 1 1 1 1 1 1 
1 1 1 1 1 1 1 1 1 
1 1 1 1 1 1 1 1 1 
1 1 1 1 1 1 1 1 1 
1 1 1 1 1 1 1 1 1 
1 1 1 1 1 1 1 1 1 
1 1 1 1 1 1 1 1 1 
1 1 1 1 1 1 1 1 1 
1 1 1 1 1 1 1 1 1 
1 1 1 1 1 1 1 1 1 
1 1 1 1 1 1 1 1 1 
1 1 1 1 1 1 1 1 1 
1 1 1 1 1 1 1 1 1 
1 1 1 1 1 1 1 1 1 
1 1 1 1 1 1 1 1 1 
1 1 1 1 1 1 1 1 1 
1 1 1 1 1 1 1 1 1 
1 1 1 1 1 1 1 1 1 
1 1 1 1 1 1 1 1 1 
1 1 1 1 1 1 1 1 1 
1 1 1 1 1 1 1 1 1 
1 1 1 1 1 1 1 1 1 
1 1 1 1 1 1 1 1 1 
1 1 1 1 1 1 1 1 1 
1 1 1 1 1 1 1 1 1 
1 1 1 1 1 1 1 1 1 
1 1 1 1 1 1 1 1 1 
1 1 1 1 1 1 1 1 1 
1 1 1 1 1 1 1 1 1 
1 1 1 1 1 1 1 1 1 
1 1 1 1 1 1 1 1 1 
1 1 1 1 1 1 1 1 1 
1 1 1 1 1 1 1 1 1 
1 1 1 1 1 1 1 1 1 
1 1 1 1 1 1 1 1 1 
1 1 1 1 1 1 1 1 1 
1 1 1 1 1 1 1 1 1 
1 1 1 1 1 1 1 1 1 
1 1 1 1 1 1 1 1 1 
1 1 1 1 1 1 1 1 1 
1 1 1 1 1 1 1 1 1 
1 1 1 1 1 1 1 1 1 
1 1 1 1 1 1 1 1 1 
1 1 1 1 1 1 1 1 1 
1 1 1 1 1 1 1 1 1 
1 1 1 1 1 1 1 1 1 
1 1 1 1 1 1 1 1 1 
1 1 1 1 1 1 1 1 1 
1 1 1 1 1 1 1 1 1 
1 1 1 1 1 1 1 1 1 
1 1 1 1 1 1 1 1 1 
1 1 1 1 1 1 1 1 1 
1 1 1 1 1 1 1 1 1 
1 1 1 1 1 1 1 1 1 
1 1 1 1 1 1 1 1 1 
1 1 1 1 1 1 1 1 1 
1 1 1 1 1 1 1 1 1 
1 1 1 1 1 1 1 1 1 
1 1 1 1 1 1 1 1 1 
1 1 1 1 1 1 1 1 1 
1 1 1 1 1 1 1 1 1 
1 1 1 1 1 1 1 1 1 
1 1 1 1 1 1 1 1 1 
1 1 1 1 1 1 1 1 1 
1 1 1 1 1 1 1 1 1 
1 1 1 1 1 1 1 1 1 
1 1 1 1 1 1 1 1 1 
1 1 1 1 1 1 1 1 1 
1 1 1 1 1 1 1 1 1 
1 1 1 1 1 1 1 1 1 
1 1 1 1 1 1 1 1 1 
1 1 1 1 1 1 1 1 1 
1 1 1 1 1 1 1 1 1 
1 1 1 1 1 1 1 1 1 
1 1 1 1 1 1 1 1 1 
1 1 1 1 1 1 1 1 1 
1 1 1 1 1 1 1 1 1 
1 1 1 1 1 1 1 1 1 
1 1 1 1 1 1 1 1 1 
1 1 1 1 1 1 1 1 1 
1 1 1 1 1 1 1 1 1 
1 1 1 1 1 1 1 1 1 
1 1 1 1 1 1 1 1 1 
1 1 1 1 1 1 1 1 1 
1 1 1 1 1 1 1 1 1 
1 1 1 1 1 1 1 1 1 
1 1 1 1 1 1 1 1 1 
1 1 1 1 1 1 1 1 1 
1 1 1 1 1 1 1 1 1 
1 1 1 1 1 1 1 1 1 
1 1 1 1 1 1 1 1 1 
1 1 1 1 1 1 1 1 1 
1 1 1 1 1 1 1 1 1 
1 1 1 1 1 1 1 1 1 
1 1 1 1 1 1 1 1 1 
1 1 1 1 1 1 1 1 1 
1 1 1 1 1 1 1 1 1 
1 1 1 1 1 1 1 1 1 
1 1 1 1 1 1 1 1 1 
1 1 1 1 1 1 1 1 1 
1 1 1 1 1 1 1 1 1 
1 1 1 1 1 1 1 1 1 
1 1 1 1 1 1 1 1 1 
1 1 1 1 1 1 1 1 1 
1 1 1 1 1 1 1 1 1 
1 1 1 1 1 1 1 1 1 
1 1 1 1 1 
NORMALS normals float
-0.0553849 -0.0553849 -0.996928 -0.0392534 -0.706562 -0.706562 -0.706562 -0.0392534 -0.706562 
0.0553849 -0.0553849 -0.996928 0.0392534 -0.706562 -0.706562 0.996928 -0.0553849 -0.0553849 
-0.05547 0 -0.99846 -0.707107 0 -0.707107 0.05547 0 -0.99846 
0.99846 0 -0.05547 -0.05547 0 -0.99846 -0.707107 0 -0.707107 
0.05547 0 -0.99846 0.99846 0 -0.05547 -0.05547 0 -0.99846 
-0.707107 0 -0.707107 0.05547 0 -0.99846 0.588034 -0.555366 -0.588034 
-0.05547 0 -0.99846 -0.707107 0 -0.707107 0 0 -1 
0.555366 -0.588034 -0.588034 0 -0.05547 -0.99846 0.0553849 -0.0553849 -0.996928 
0.0392534 -0.706562 -0.706562 0.996928 -0.0553849 -0.0553849 -0.0553849 0.0553849 -0.996928 
-0.996928 0.0553849 -0.0553849 0 0.05547 -0.99846 0 0 -1 
0.05547 0 -0.99846 0.99846 0 -0.05547 -0.0553849 0.996928 -0.0553849 
-0.686064 0.726421 -0.0403567 -0.726421 0.686064 -0.0403567 -0.05547 0 -0.99846 
0.0553849 0.0553849 -0.996928 0.996928 0.0553849 -0.0553849 0 0.05547 -0.99846 
-0.996558 0.058621 -0.058621 0.686064 0.726421 -0.0403567 0.706562 0.706562 -0.0392534 
0 0.99846 -0.05547 -0.0553849 -0.0553849 -0.996928 -0.0392534 -0.706562 -0.706562 
-0.996928 -0.0553849 -0.0553849 0 -0.05547 -0.99846 0 -0.707107 -0.707107 
0 -0.05547 -0.99846 0 -0.707107 -0.707107 0.05547 0 -0.99846 
0.0403567 -0.686064 -0.726421 0.99846 0 -0.05547 -0.0553849 0.0553849 -0.996928 
-0.996928 0.0553849 -0.0553849 0 0.05547 -0.99846 0.0553849 0.0553849 -0.996928 
0.706562 0.706562 -0.0392534 0.726421 0.686064 -0.0403567 -0.0553849 0.996928 -0.0553849 
0 0.99846 -0.05547 0.0553849 0.996928 -0.0553849 -0.05547 0 -0.99846 
-0.0403567 -0.686064 -0.726421 -0.588034 -0.555366 -0.588034 0.05547 0 -0.99846 
0.0403567 -0.686064 -0.726421 0.99846 0 -0.05547 0 -0.05547 -0.99846 
-0.555366 -0.588034 -0.588034 -0.686064 -0.0403567 -0.726421 0.664364 0 -0.747409 
0.686064 -0.0403567 -0.726421 0.05547 0 -0.99846 -0.05547 0 -0.99846 
-0.707107 0 -0.707107 0.686064 -0.0403567 -0.726421 0 -0.707107 -0.707107 
0.0392534 -0.706562 -0.706562 0.0553849 -0.0553849 -0.996928 0.706562 -0.0392534 -0.706562 
-0.707107 0 -0.707107 -0.707107 0 -0.707107 0.727013 0 -0.686624 
-0.707107 0 -0.707107 -0.707107 0 -0.707107 0.727013 0 -0.686624 
-0.707107 0 -0.707107 -0.707107 0 -0.707107 0.599334 -0.566038 -0.566038 
-0.707107 0 -0.707107 -0.707107 0 -0.707107 0.555366 -0.588034 -0.588034 
0.555366 -0.588034 -0.588034 0.0392534 -0.706562 -0.706562 0.0392534 -0.706562 -0.706562 
0.706562 -0.0392534 -0.706562 -0.726421 0.0403567 -0.686064 -0.99846 0.05547 0 
0.727013 0 -0.686624 -0.707107 0.707107 0 -0.707107 0.707107 0 
0.727013 0 -0.686624 -0.05547 0.99846 0 -0.686624 0.727013 0 
-0.727013 0.686624 0 0.726421 0.0403567 -0.686064 -0.998274 0.058722 0 
0.566038 0.599334 -0.566038 0.588034 0.588034 -0.555366 -0.05547 0 -0.99846 
-0.0403567 -0.686064 -0.726421 -0.707107 0 -0.707107 0 -0.707107 -0.707107 
0 -0.707107 -0.707107 0 -0.707107 -0.707107 0 -0.707107 -0.707107 
0 -0.707107 -0.707107 0 -0.707107 -0.707107 0.0392534 -0.706562 -0.706562 
0.0392534 -0.706562 -0.706562 0.996928 -0.0553849 -0.0553849 0 1 0 
-0.726421 0.686064 -0.0403567 -0.727013 0.686624 0 0.99846 0.05547 0 
-0.99846 0.05547 0 0.707107 0.707107 0 0.707107 0.707107 0 
-0.05547 0.99846 0 0 1 0 0.05547 0.99846 0 
-0.0553849 -0.0553849 -0.996928 -0.0553849 -0.996928 -0.0553849 -0.706562 -0.0392534 -0.706562 
0.0553849 -0.0553849 -0.996928 0.0553849 -0.996928 -0.0553849 0.996928 -0.0553849 -0.0553849 
-0.05547 0 -0.99846 -0.707107 0 -0.707107 0.05547 0 -0.99846 
0.99846 0 -0.05547 -0.0403567 -0.686064 -0.726421 -0.588034 -0.555366 -0.588034 
0.0403567 -0.686064 -0.726421 0.99846 0 -0.05547 -0.57735 -0.57735 -0.57735 
-0.57735 -0.57735 -0.57735 -0.57735 -0.57735 -0.57735 0.599334 -0.566038 -0.566038 
-0.706562 -0.0392534 -0.706562 -0.57735 -0.57735 -0.57735 -0.996928 -0.0553849 -0.0553849 
0.686624 0 -0.727013 0 0 -1 0.555366 -0.588034 -0.588034 
0 -0.05547 -0.99846 0.0553849 -0.0553849 -0.996928 0.0392534 -0.706562 -0.706562 
0.996928 -0.0553849 -0.0553849 -0.707107 0 -0.707107 -0.99846 0 -0.05547 
0.686624 0 -0.727013 0.05547 0 -0.99846 0.99846 0 -0.05547 
-0.707107 0 -0.707107 -0.99846 0 -0.05547 0.686624 0 -0.727013 
0.05547 0 -0.99846 0.99846 0 -0.05547 -0.707107 0 -0.707107 
-0.99846 0 -0.05547 0.686624 0 -0.727013 0.05547 0 -0.99846 
0.588034 -0.555366 -0.588034 -0.707107 0 -0.707107 -0.99846 0 -0.05547 
0.566038 -0.566038 -0.599334 0 -0.686624 -0.727013 0.555366 -0.588034 -0.588034 
0 -0.05547 -0.99846 0.0553849 -0.0553849 -0.996928 0.0392534 -0.706562 -0.706562 
0.996928 -0.0553849 -0.0553849 -0.706562 0.0392534 -0.706562 -0.996928 0.0553849 -0.0553849 
0.686624 0 -0.727013 0.05547 0 -0.99846 0.588034 -0.555366 -0.588034 
-0.0553849 0.996928 -0.0553849 -0.566038 0.599334 0.566038 -0.588034 0.588034 0.555366 
-0.599334 0.566038 0.566038 0.686624 0 -0.727013 0 0 -1 
0.555366 -0.588034 -0.588034 0 -0.05547 -0.99846 0 -0.05547 -0.99846 
0 -0.707107 -0.707107 0 -0.05547 -0.99846 0 -0.707107 -0.707107 
0.0553849 -0.0553849 -0.996928 0.0553849 -0.996928 -0.0553849 0.996928 -0.0553849 -0.0553849 
-0.99846 0.05547 0 0.686624 0 -0.727013 0 0 -1 
0 0 -1 0 0 -1 0 0 -1 
0.05547 0 -0.99846 0.99846 0 -0.05547 -0.05547 0.99846 0 
-0.686624 0.727013 0 -0.727013 0.686624 0 0.686624 0 -0.727013 
0 -0.686624 -0.727013 0 -0.686624 -0.727013 0 -0.686624 -0.727013 
0 -0.686624 -0.727013 0.0403567 -0.686064 -0.726421 0.99846 0 -0.05547 
-0.99846 0.05547 0 0.555366 0.588034 -0.588034 -0.686064 0.0403567 -0.726421 
1 0 0 -0.05547 0.99846 0 0 0.99846 -0.05547 
0 0.99846 -0.05547 -0.686624 0.727013 0 -0.727013 0.686624 0 
0.996928 0.0553849 0.0553849 -0.996928 0.0553849 0.0553849 0.706562 0.706562 0.0392534 
0.706562 0.706562 0.0392534 -0.0553849 0.996928 0.0553849 0 0.99846 0.05547 
0.0553849 0.996928 0.0553849 0 -0.05547 -0.99846 0 -0.707107 -0.707107 
-0.686064 -0.0403567 -0.726421 0.686064 -0.726421 -0.0403567 -0.707107 0 -0.707107 
-0.707107 0 -0.707107 0.686624 -0.727013 0 0.05547 -0.99846 0 
0.99846 -0.05547 0 -0.707107 0 -0.707107 -0.707107 0 -0.707107 
1 0 0 -0.588034 -0.555366 -0.588034 -0.588034 -0.555366 -0.588034 
0.599334 -0.566038 -0.566038 -0.57735 -0.57735 -0.57735 -0.57735 -0.57735 -0.57735 
-0.996928 -0.0553849 -0.0553849 0.555366 -0.588034 -0.588034 0.555366 -0.588034 -0.588034 
0.0392534 -0.706562 -0.706562 0.0392534 -0.706562 -0.706562 0.706562 -0.0392534 -0.706562 
-1 0 0 0.727013 0 -0.686624 -1 0 0 
0.727013 0 -0.686624 -1 0 0 0.599334 -0.566038 -0.566038 
-1 0 0 0.555366 -0.588034 -0.588034 0.555366 -0.588034 -0.588034 
0.0392534 -0.706562 -0.706562 0.0392534 -0.706562 -0.706562 0.706562 -0.0392534 -0.706562 
-1 0 0 0.599334 -0.566038 -0.566038 -0.99846 0.05547 0 
0.555366 -0.588034 -0.588034 0.555366 -0.588034 -0.588034 0 -0.707107 -0.707107 
0 -0.707107 -0.707107 0.0392534 -0.706562 -0.706562 0.0392534 -0.706562 -0.706562 
0.57735 -0.57735 -0.57735 -0.05547 0.99846 0 -0.686624 0.727013 0 
-0.727013 0.686624 0 0.588034 -0.588034 -0.555366 0.726421 -0.0403567 -0.686064 
-0.99846 0.05547 0 0.727013 0 -0.686624 -0.05547 0.99846 0 
-0.686624 0.727013 0 -0.727013 0.686624 0 1 0 0 
-0.99846 0.05547 0 0.996928 0.0553849 0.0553849 -0.05547 0.99846 0 
0 1 0 0 1 0 -0.686624 0.727013 0 
-0.706562 0.706562 0.0392534 0.57735 0.57735 0.57735 0.57735 0.57735 0.57735 
0.57735 0.57735 0.57735 -0.0392534 0.706562 0.706562 -0.0392534 0.706562 0.706562 
0 0.707107 0.707107 0 0.707107 0.707107 0.0392534 0.706562 0.706562 
0.0392534 0.706562 0.706562 -0.0553849 -0.0553849 -0.996928 -0.0392534 -0.706562 -0.706562 
-0.706562 -0.0392534 -0.706562 0.0392534 -0.706562 -0.706562 0.0392534 -0.706562 -0.706562 
0.996928 -0.0553849 -0.0553849 -0.707107 0 -0.707107 -0.707107 0 -0.707107 
0.599334 -0.566038 -0.566038 -0.707107 0 -0.707107 -0.707107 0 -0.707107 
0.566038 -0.599334 -0.566038 0.05547 -0.99846 0 0.99846 -0.05547 0 
-0.707107 0 -0.707107 -0.707107 0 -0.707107 0.599334 -0.566038 -0.566038 
-0.588034 -0.555366 -0.588034 -0.99846 0 -0.05547 0.555366 -0.588034 -0.588034 
0.555366 -0.588034 -0.588034 0 -0.707107 -0.707107 0 -0.707107 -0.707107 
0 -0.05547 -0.99846 0 -0.707107 -0.707107 0.0553849 -0.0553849 -0.996928 
0.0392534 -0.706562 -0.706562 0.996928 -0.0553849 -0.0553849 -1 0 0 
0.686624 0 -0.727013 0.05547 0 -0.99846 0.588034 -0.555366 -0.588034 
-1 0 0 0.686624 0 -0.727013 0 0 -1 
0.555366 -0.588034 -0.588034 0 -0.05547 -0.99846 0.0553849 -0.0553849 -0.996928 
0.0392534 -0.706562 -0.706562 0.996928 -0.0553849 -0.0553849 -1 0 0 
0.686624 0 -0.727013 0 0 -1 0 0 -1 
0.05547 0 -0.99846 0.99846 0 -0.05547 -1 0 0 
0.566038 -0.566038 -0.599334 0 -0.686624 -0.727013 0 0 -1 
0.05547 0 -0.99846 0.99846 0 -0.05547 -1 0 0 