# vtk DataFile Version 3.0
vtk output
ASCII
DATASET POLYDATA
POINTS 6258 float
90 135 114.053 90 134.053 115 89.0526 135 115 
90.9474 135 115 90 136 114.053 89.0526 136 115 
90.9474 136 115 90 137 114.053 89.0526 137 115 
91 136.053 115 91 137 114.053 91.9474 137 115 
90 137.947 115 91 137.947 115 81 141 114.053 
81 140.053 115 80.0526 141 115 82 141 114.053 
82 140.053 115 83 141 114.053 83 140.053 115 
84 141 114.053 84 140.053 115 85 141 114.053 
85 140.053 115 86 141 114.053 86 140.053 115 
87 141 114.053 87 140.053 115 88 141 114.053 
88 140.053 115 89 141 114.053 89 140.053 115 
90 141 114.053 90 140.053 115 91 141 114.053 
91 140.053 115 91.9474 141 115 81 141.947 115 
82 141.947 115 83 141.947 115 84 141.947 115 
85 141.947 115 86 141.947 115 87 141.947 115 
88 141.947 115 89 141.947 115 90 141.947 115 
91 141.947 115 81 132 115.053 81 131.053 116 
80.0526 132 116 82 132 115.053 82 131.053 116 
83 132 115.053 83 131.053 116 84 132 115.053 
84 131.053 116 85 132 115.053 85 131.053 116 
86 132 115.053 86 131.053 116 87 132 115.053 
87 131.053 116 88 132 115.053 88 131.053 116 
89 132 115.053 89 131.053 116 90 132 115.053 
90 131.053 116 90.9474 132 116 81 133 115.053 
80.0526 133 116 82 133 115.053 83 133 115.053 
84 133 115.053 85 133 115.053 86 133 115.053 
87 133 115.053 88 133 115.053 89 133 115.053 
90 133 115.053 90.9474 133 116 81 134 115.053 
80.0526 134 116 82 134 115.053 83 134 115.053 
84 134 115.053 85 134 115.053 86 134 115.053 
87 134 115.053 88 134 115.053 89 134 115.053 
90 134 115.053 90.9474 134 116 81 135 115.053 
80.0526 135 116 82 135 115.053 83 135 115.053 
84 135 115.053 85 135 115.053 86 135 115.053 
87 135 115.053 88 135 115.053 89 135 115.053 
90.9474 135 116 81 136 115.053 80.0526 136 116 
82 136 115.053 83 136 115.053 84 136 115.053 
85 136 115.053 86 136 115.053 87 136 115.053 
88 136 115.053 89 136 115.053 91 135.053 116 
91 136 115.053 92 136 115.053 92 135.053 116 
92.9474 136 116 81 137 115.053 80.0526 137 116 
82 137 115.053 83 137 115.053 84 137 115.053 
85 137 115.053 86 137 115.053 87 137 115.053 
88 137 115.053 89 137 115.053 92 137 115.053 
92.9474 137 116 81 138 115.053 80.0526 138 116 
82 138 115.053 83 138 115.053 84 138 115.053 
85 138 115.053 86 138 115.053 87 138 115.053 
88 138 115.053 89 138 115.053 90 138 115.053 
91 138 115.053 92 138 115.053 92.9474 138 116 
81 139 115.053 80.0526 139 116 82 139 115.053 
83 139 115.053 84 139 115.053 85 139 115.053 
86 139 115.053 87 139 115.053 88 139 115.053 
89 139 115.053 90 139 115.053 91 139 115.053 
92 139 115.053 92.9474 139 116 81 140 115.053 
80.0526 140 116 82 140 115.053 83 140 115.053 
84 140 115.053 85 140 115.053 86 140 115.053 
87 140 115.053 88 140 115.053 89 140 115.053 
90 140 115.053 91 140 115.053 92 140 115.053 
92.9474 140 116 80 141 115.053 80 140.053 116 
79.0526 141 116 92 141 115.053 92.9474 141 116 
80 141.947 116 81 142 115.053 80.0526 142 116 
82 142 115.053 83 142 115.053 84 142 115.053 
85 142 115.053 86 142 115.053 87 142 115.053 
88 142 115.053 89 142 115.053 90 142 115.053 
91 142 115.053 92 142 115.053 92.9474 142 116 
81 143 115.053 80.0526 143 116 82 143 115.053 
83 143 115.053 84 143 115.053 85 143 115.053 
86 143 115.053 87 143 115.053 88 143 115.053 
89 143 115.053 90 143 115.053 91 143 115.053 
92 143 115.053 92.9474 143 116 81 144 115.053 
80.0526 144 116 82 144 115.053 83 144 115.053 
84 144 115.053 85 144 115.053 86 144 115.053 
87 144 115.053 88 144 115.053 89 144 115.053 
90 144 115.053 91 144 115.053 92 144 115.053 
92.9474 144 116 81 145 115.053 80.0526 145 116 
82 145 115.053 83 145 115.053 84 145 115.053 
85 145 115.053 86 145 115.053 87 145 115.053 
88 145 115.053 89 145 115.053 90 145 115.053 
91 145 115.053 92 145 115.053 92.9474 145 116 
81 146 115.053 80.0526 146 116 82 146 115.053 
83 146 115.053 84 146 115.053 85 146 115.053 
86 146 115.053 87 146 115.053 88 146 115.053 
89 146 115.053 90 146 115.053 91 146 115.053 
92 146 115.053 92.9474 146 116 81 147 115.053 
80.0526 147 116 82 147 115.053 83 147 115.053 
84 147 115.053 85 147 115.053 86 147 115.053 
87 147 115.053 88 147 115.053 89 147 115.053 
90 147 115.053 91 147 115.053 92 147 115.053 
92.9474 147 116 81 148 115.053 80.0526 148 116 
82 148 115.053 83 148 115.053 84 148 115.053 
85 148 115.053 86 148 115.053 87 148 115.053 
88 148 115.053 89 148 115.053 90 148 115.053 
91 148 115.053 92 148 115.053 92.9474 148 116 
81 149 115.053 80.0526 149 116 82 149 115.053 
83 149 115.053 84 149 115.053 85 149 115.053 
86 149 115.053 87 149 115.053 88 149 115.053 
89 149 115.053 90 149 115.053 91 149 115.053 
91.9474 149 116 92 148.947 116 81 149.947 116 
82 149.947 116 83 149.947 116 84 149.947 116 
85 149.947 116 86 149.947 116 87 149.947 116 
88 149.947 116 89 149.947 116 90 149.947 116 
91 149.947 116 80 131 116.053 80 130.053 117 
79.0526 131 117 81 131 116.053 81 130.053 117 
82 131 116.053 82 130.053 117 83 131 116.053 
83 130.053 117 84 131 116.053 84 130.053 117 
85 131 116.053 85 130.053 117 86 131 116.053 
86 130.053 117 87 131 116.053 87 130.053 117 
88 131 116.053 88 130.053 117 89 131 116.053 
89 130.053 117 90 131 116.053 90 130.053 117 
90.9474 131 117 80 132 116.053 79.0526 132 117 
90.9474 132 117 80 133 116.053 79.0526 133 117 
90.9474 133 117 80 134 116.053 79.0526 134 117 
90.9474 134 117 80 135 116.053 79.0526 135 117 
91 134.053 117 91 135 116.053 91.9474 135 117 
80 136 116.053 79.0526 136 117 92 135.053 117 
92.9474 136 117 80 137 116.053 79.0526 137 117 
92.9474 137 117 80 138 116.053 79.0526 138 117 
92.9474 138 117 80 139 116.053 79.0526 139 117 
92.9474 139 117 80 140 116.053 79.0526 140 117 
92.9474 140 117 79 141 116.053 79 140.053 117 
78.0526 141 117 92.9474 141 117 79 141.947 117 
80 142 116.053 79.0526 142 117 92.9474 142 117 
80 143 116.053 79.0526 143 117 92.9474 143 117 
80 144 116.053 79.0526 144 117 92.9474 144 117 
80 145 116.053 79.0526 145 117 92.9474 145 117 
80 146 116.053 79.0526 146 117 92.9474 146 117 
80 147 116.053 79.0526 147 117 92.9474 147 117 
80 148 116.053 79.0526 148 117 92.9474 148 117 
80 148.947 117 80.0526 149 117 92 149 116.053 
92.9474 149 117 81 149.947 117 82 149.947 117 
83 149.947 117 84 149.947 117 85 149.947 117 
86 149.947 117 87 149.947 117 88 149.947 117 
89 149.947 117 90 149.947 117 91 149.947 117 
92 149.947 117 77 122 117.053 77 121.053 118 
76.0526 122 118 78 122 117.053 78 121.053 118 
78.9474 122 118 77 123 117.053 76.0526 123 118 
78 123 117.053 78.9474 123 118 77 124 117.053 
76.0526 124 118 78 124 117.053 79 123.053 118 
79 124 117.053 80 124 117.053 80 123.053 118 
81 124 117.053 81 123.053 118 82 124 117.053 
82 123.053 118 82.9474 124 118 77 125 117.053 
76.0526 125 118 78 125 117.053 79 125 117.053 
80 125 117.053 81 125 117.053 82 125 117.053 
82.9474 125 118 77 126 117.053 76.0526 126 118 
78 126 117.053 79 126 117.053 80 126 117.053 
81 126 117.053 82 126 117.053 83 125.053 118 
83 126 117.053 84 126 117.053 84 125.053 118 
85 126 117.053 85 125.053 118 86 126 117.053 
86 125.053 118 86.9474 126 118 77 127 117.053 
76.0526 127 118 78 127 117.053 79 127 117.053 
80 127 117.053 81 127 117.053 82 127 117.053 
83 127 117.053 84 127 117.053 85 127 117.053 
86 127 117.053 86.9474 127 118 77 128 117.053 
76.0526 128 118 78 128 117.053 79 128 117.053 
80 128 117.053 81 128 117.053 82 128 117.053 
83 128 117.053 84 128 117.053 85 128 117.053 
86 128 117.053 87 127.053 118 87 128 117.053 
88 128 117.053 88 127.053 118 89 128 117.053 
89 127.053 118 90 128 117.053 90 127.053 118 
90.9474 128 118 77 129 117.053 76.0526 129 118 
78 129 117.053 79 129 117.053 80 129 117.053 
81 129 117.053 82 129 117.053 83 129 117.053 
84 129 117.053 85 129 117.053 86 129 117.053 
87 129 117.053 88 129 117.053 89 129 117.053 
90 129 117.053 90.9474 129 118 77 130 117.053 
76.0526 130 118 78 130 117.053 79 130 117.053 
80 130 117.053 81 130 117.053 82 130 117.053 
83 130 117.053 84 130 117.053 85 130 117.053 
86 130 117.053 87 130 117.053 88 130 117.053 
89 130 117.053 90 130 117.053 90.9474 130 118 
77 131 117.053 76.0526 131 118 78 131 117.053 
79 131 117.053 90.9474 131 118 77 132 117.053 
76.0526 132 118 78 132 117.053 79 132 117.053 
90.9474 132 118 77 133 117.053 76.0526 133 118 
78 133 117.053 79 133 117.053 90.9474 133 118 
77 133.947 118 78 133.947 118 78.0526 134 118 
79 134 117.053 90.9474 134 118 79 135 117.053 
78.0526 135 118 91 135 117.947 90.9474 135 118 
79 136 117.053 78.0526 136 118 91 135.053 118 
92 135.053 118 92.9474 136 118 79 137 117.053 
78.0526 137 118 92.9474 137 118 79 138 117.053 
78.0526 138 118 92.9474 138 118 78 139 117.053 
78 138.053 118 77.0526 139 118 79 139 117.053 
92.9474 139 118 78 139.947 118 78.0526 140 118 
79 140 117.053 92.9474 140 118 78.0526 141 118 
92.9474 141 118 79 142 117.053 78.0526 142 118 
92.9474 142 118 79 143 117.053 78.0526 143 118 
92.9474 143 118 79 144 117.053 78.0526 144 118 
92.9474 144 118 79 145 117.053 78.0526 145 118 
92.9474 145 118 79 146 117.053 78.0526 146 118 
92.9474 146 118 79 147 117.053 78.0526 147 118 
92.9474 147 118 79 147.947 118 80 147.947 118 
80 148 117.947 80.0526 148 118 92.9474 148 118 
80 148.053 118 79.0526 149 118 80 149 117.053 
92.9474 149 118 80 149.947 118 81 150 117.053 
80.0526 150 118 82 150 117.053 83 150 117.053 
84 150 117.053 85 150 117.053 86 150 117.053 
87 150 117.053 88 150 117.053 89 150 117.053 
90 150 117.053 91 150 117.053 92 150 117.053 
92.9474 150 118 81 151 117.053 80.0526 151 118 
82 151 117.053 83 151 117.053 84 151 117.053 
85 151 117.053 86 151 117.053 87 151 117.053 
88 151 117.053 89 151 117.053 90 151 117.053 
91 151 117.053 91.9474 151 118 92 150.947 118 
81 151.947 118 82 151.947 118 83 151.947 118 
84 151.947 118 85 151.947 118 86 151.947 118 
87 151.947 118 88 151.947 118 89 151.947 118 
90 151.947 118 91 151.947 118 77 121.053 119 
76.0526 122 119 78 121.053 119 78.9474 122 119 
76 123 118.053 76 122.053 119 75.0526 123 119 
79 122.053 119 79 123 118.053 80 123 118.053 
80 122.053 119 80.9474 123 119 76 124 118.053 
[...]
POINT_DATA 6258
SCALARS scalars float
LOOKUP_TABLE default
1 1 1 1 1 1 1 1 1 
1 1 1 1 1 1 1 1 1 
1 1 1 1 1 1 1 1 1 
1 1 1 1 1 1 1 1 1 
1 1 1 1 1 1 1 1 1 
1 1 1 1 1 1 1 1 1 
1 1 1 1 1 1 1 1 1 
1 1 1 1 1 1 1 1 1 
1 1 1 1 1 1 1 1 1 
1 1 1 1 1 1 1 1 1 
1 1 1 1 1 1 1 1 1 
1 1 1 1 1 1 1 1 1 
1 1 1 1 1 1 1 1 1 
1 1 1 1 1 1 1 1 1 
1 1 1 1 1 1 1 1 1 
1 1 1 1 1 1 1 1 1 
1 1 1 1 1 1 1 1 1 
1 1 1 1 1 1 1 1 1 
1 1 1 1 1 1 1 1 1 
1 1 1 1 1 1 1 1 1 
1 1 1 1 1 1 1 1 1 
1 1 1 1 1 1 1 1 1 
1 1 1 1 1 1 1 1 1 
1 1 1 1 1 1 1 1 1 
1 1 1 1 1 1 1 1 1 
1 1 1 1 1 1 1 1 1 
1 1 1 1 1 1 1 1 1 
1 1 1 1 1 1 1 1 1 
1 1 1 1 1 1 1 1 1 
1 1 1 1 1 1 1 1 1 
1 1 1 1 1 1 1 1 1 
1 1 1 1 1 1 1 1 1 
1 1 1 1 1 1 1 1 1 
1 1 1 1 1 1 1 1 1 
1 1 1 1 1 1 1 1 1 
1 1 1 1 1 1 1 1 1 
1 1 1 1 1 1 1 1 1 
1 1 1 1 1 1 1 1 1 
1 1 1 1 1 1 1 1 1 
1 1 1 1 1 1 1 1 1 
1 1 1 1 1 1 1 1 1 
1 1 1 1 1 1 1 1 1 
1 1 1 1 1 1 1 1 1 
1 1 1 1 1 1 1 1 1 
1 1 1 1 1 1 1 1 1 
1 1 1 1 1 1 1 1 1 
1 1 1 1 1 1 1 1 1 
1 1 1 1 1 1 1 1 1 
1 1 1 1 1 1 1 1 1 
1 1 1 1 1 1 1 1 1 
1 1 1 1 1 1 1 1 1 
1 1 1 1 1 1 1 1 1 
1 1 1 1 1 1 1 1 1 
1 1 1 1 1 1 1 1 1 
1 1 1 1 1 1 1 1 1 
1 1 1 1 1 1 1 1 1 
1 1 1 1 1 1 1 1 1 
1 1 1 1 1 1 1 1 1 
1 1 1 1 1 1 1 1 1 
1 1 1 1 1 1 1 1 1 
1 1 1 1 1 1 1 1 1 
1 1 1 1 1 1 1 1 1 
1 1 1 1 1 1 1 1 1 
1 1 1 1 1 1 1 1 1 
1 1 1 1 1 1 1 1 1 
1 1 1 1 1 1 1 1 1 
1 1 1 1 1 1 1 1 1 
1 1 1 1 1 1 1 1 1 
1 1 1 1 1 1 1 1 1 
1 1 1 1 1 1 1 1 1 
1 1 1 1 1 1 1 1 1 
1 1 1 1 1 1 1 1 1 
1 1 1 1 1 1 1 1 1 
1 1 1 1 1 1 1 1 1 
1 1 1 1 1 1 1 1 1 
1 1 1 1 1 1 1 1 1 
1 1 1 1 1 1 1 1 1 
1 1 1 1 1 1 1 1 1 
1 1 1 1 1 1 1 1 1 
1 1 1 1 1 1 1 1 1 
1 1 1 1 1 1 1 1 1 
1 1 1 1 1 1 1 1 1 
1 1 1 1 1 1 1 1 1 
1 1 1 1 1 1 1 1 1 
1 1 1 1 1 1 1 1 1 
1 1 1 1 1 1 1 1 1 
1 1 1 1 1 1 1 1 1 
1 1 1 1 1 1 1 1 1 
1 1 1 1 1 1 1 1 1 
1 1 1 1 1 1 1 1 1 
1 1 1 1 1 1 1 1 1 
1 1 1 1 1 1 1 1 1 
1 1 1 1 1 1 1 1 1 
1 1 1 1 1 1 1 1 1 
1 1 1 1 1 1 1 1 1 
1 1 1 1 1 1 1 1 1 
1 1 1 1 1 1 1 1 1 
1 1 1 1 1 1 1 1 1 
1 1 1 1 1 1 1 1 1 
1 1 1 1 1 1 1 1 1 
1 1 1 1 1 1 1 1 1 
1 1 1 1 1 1 1 1 1 
1 1 1 1 1 1 1 1 1 
1 1 1 1 1 1 1 1 1 
1 1 1 1 1 1 1 1 1 
1 1 1 1 1 1 1 1 1 
1 1 1 1 1 1 1 1 1 
1 1 1 1 1 1 1 1 1 
1 1 1 1 1 1 1 1 1 
1 1 1 1 1 1 1 1 1 
1 1 1 1 1 1 1 1 1 
1 1 1 1 1 1 1 1 1 
1 1 1 1 1 1 1 1 1 
1 1 1 1 1 1 1 1 1 
1 1 1 1 1 1 1 1 1 
1 1 1 1 1 1 1 1 1 
1 1 1 1 1 1 1 1 1 
1 1 1 1 1 1 1 1 1 
1 1 1 1 1 1 1 1 1 
1 1 1 1 1 1 1 1 1 
1 1 1 1 1 1 1 1 1 
1 1 1 1 1 1 1 1 1 
1 1 1 1 1 1 1 1 1 
1 1 1 1 1 1 1 1 1 
1 1 1 1 1 1 1 1 1 
1 1 1 1 1 1 1 1 1 
1 1 1 1 1 1 1 1 1 
1 1 1 1 1 1 1 1 1 
1 1 1 1 1 1 1 1 1 
1 1 1 1 1 1 1 1 1 
1 1 1 1 1 1 1 1 1 
1 1 1 1 1 1 1 1 1 
1 1 1 1 1 1 1 1 1 
1 1 1 1 1 1 1 1 1 
1 1 1 1 1 1 1 1 1 
1 1 1 1 1 1 1 1 1 
1 1 1 1 1 1 1 1 1 
1 1 1 1 1 1 1 1 1 
1 1 1 1 1 1 1 1 1 
1 1 1 1 1 1 1 1 1 
1 1 1 1 1 1 1 1 1 
1 1 1 1 1 1 1 1 1 
1 1 1 1 1 1 1 1 1 
1 1 1 1 1 1 1 1 1 
1 1 1 1 1 1 1 1 1 
1 1 1 1 1 1 1 1 1 
1 1 1 1 1 1 1 1 1 
1 1 1 1 1 1 1 1 1 
1 1 1 1 1 1 1 1 1 
1 1 1 1 1 1 1 1 1 
1 1 1 1 1 1 1 1 1 
1 1 1 1 1 1 1 1 1 
1 1 1 1 1 1 1 1 1 
1 1 1 1 1 1 1 1 1 
1 1 1 1 1 1 1 1 1 
1 1 1 1 1 1 1 1 1 
1 1 1 1 1 1 1 1 1 
1 1 1 1 1 1 1 1 1 
1 1 1 1 1 1 1 1 1 
1 1 1 1 1 1 1 1 1 
1 1 1 1 1 1 1 1 1 
1 1 1 1 1 1 1 1 1 
1 1 1 1 1 1 1 1 1 
1 1 1 1 1 1 1 1 1 
1 1 1 1 1 1 1 1 1 
1 1 1 1 1 1 1 1 1 
1 1 1 1 1 1 1 1 1 
1 1 1 1 1 1 1 1 1 
1 1 1 1 1 1 1 1 1 
1 1 1 1 1 1 1 1 1 
1 1 1 1 1 1 1 1 1 
1 1 1 1 1 1 1 1 1 
1 1 1 1 1 1 1 1 1 
1 1 1 1 1 1 1 1 1 
1 1 1 1 1 1 1 1 1 
1 1 1 1 1 1 1 1 1 
1 1 1 1 1 1 1 1 1 
1 1 1 1 1 1 1 1 1 
1 1 1 1 1 1 1 1 1 
1 1 1 1 1 1 1 1 1 
1 1 1 1 1 1 1 1 1 
1 1 1 1 1 1 1 1 1 
1 1 1 1 1 1 1 1 1 
1 1 1 1 1 1 1 1 1 
1 1 1 1 1 1 1 1 1 
1 1 1 1 1 1 1 1 1 
1 1 1 1 1 1 1 1 1 
1 1 1 1 1 1 1 1 1 
1 1 1 1 1 1 1 1 1 
1 1 1 1 1 1 1 1 1 
1 1 1 1 1 1 1 1 1 
1 1 1 1 1 1 1 1 1 
1 1 1 1 1 1 1 1 1 
1 1 1 1 1 1 1 1 1 
1 1 1 1 1 1 1 1 1 
1 1 1 1 1 1 1 1 1 
1 1 1 1 1 1 1 1 1 
1 1 1 1 1 1 1 1 1 
1 1 1 1 1 1 1 1 1 
1 1 1 1 1 1 1 1 1 
1 1 1 1 1 1 1 1 1 
1 1 1 1 1 1 1 1 1 
1 1 1 1 1 1 1 1 1 
1 1 1 1 1 1 1 1 1 
1 1 1 1 1 1 1 1 1 
1 1 1 1 1 1 1 1 1 
1 1 1 1 1 1 1 1 1 
1 1 1 1 1 1 1 1 1 
1 1 1 1 1 1 1 1 1 
1 1 1 1 1 1 1 1 1 
1 1 1 1 1 1 1 1 1 
1 1 1 1 1 1 1 1 1 
1 1 1 1 1 1 1 1 1 
1 1 1 1 1 1 1 1 1 
1 1 1 1 1 1 1 1 1 
1 1 1 1 1 1 1 1 1 
1 1 1 1 1 1 1 1 1 
1 1 1 1 1 1 1 1 1 
1 1 1 1 1 1 1 1 1 
1 1 1 1 1 1 1 1 1 
1 1 1 1 1 1 1 1 1 
1 1 1 1 1 1 1 1 1 
1 1 1 1 1 1 1 1 1 
1 1 1 1 1 1 1 1 1 
1 1 1 1 1 1 1 1 1 
1 1 1 1 1 1 1 1 1 
1 1 1 1 1 1 1 1 1 
1 1 1 1 1 1 1 1 1 
1 1 1 1 1 1 1 1 1 
1 1 1 1 1 1 1 1 1 
1 1 1 1 1 1 1 1 1 
1 1 1 1 1 1 1 1 1 
1 1 1 1 1 1 1 1 1 
1 1 1 1 1 1 1 1 1 
1 1 1 1 1 1 1 1 1 
1 1 1 1 1 1 1 1 1 
1 1 1 1 1 1 1 1 1 
1 1 1 1 1 1 1 1 1 
1 1 1 1 1 1 1 1 1 
1 1 1 1 1 1 1 1 1 
1 1 1 1 1 1 1 1 1 
1 1 1 1 1 1 1 1 1 
1 1 1 1 1 1 1 1 1 
1 1 1 1 1 1 1 1 1 
1 1 1 1 1 1 1 1 1 
1 1 1 1 1 1 1 1 1 
1 1 1 1 1 1 1 1 1 
1 1 1 1 1 1 1 1 1 
1 1 1 1 1 1 1 1 1 
1 1 1 1 1 1 1 1 1 
1 1 1 1 1 1 1 1 1 
1 1 1 1 1 1 1 1 1 
1 1 1 1 1 1 1 1 1 
1 1 1 1 1 1 1 1 1 
1 1 1 1 1 1 1 1 1 
1 1 1 1 1 1 1 1 1 
1 1 1 1 1 1 1 1 1 
1 1 1 1 1 1 1 1 1 
1 1 1 1 1 1 1 1 1 
1 1 1 1 1 1 1 1 1 
1 1 1 1 1 1 1 1 1 
1 1 1 1 1 1 1 1 1 
1 1 1 1 1 1 1 1 1 
1 1 1 1 1 1 1 1 1 
1 1 1 1 1 1 1 1 1 
1 1 1 1 1 1 1 1 1 
1 1 1 1 1 1 1 1 1 
1 1 1 1 1 1 1 1 1 
1 1 1 1 1 1 1 1 1 
1 1 1 1 1 1 1 1 1 
1 1 1 1 1 1 1 1 1 
1 1 1 1 1 1 1 1 1 
1 1 1 1 1 1 1 1 1 
1 1 1 1 1 1 1 1 1 
1 1 1 1 1 1 1 1 1 
1 1 1 1 1 1 1 1 1 
1 1 1 1 1 1 1 1 1 
1 1 1 1 1 1 1 1 1 
1 1 1 1 1 1 1 1 1 
1 1 1 1 1 1 1 1 1 
1 1 1 1 1 1 1 1 1 
1 1 1 1 1 1 1 1 1 
1 1 1 1 1 1 1 1 1 
1 1 1 1 1 1 1 1 1 
1 1 1 1 1 1 1 1 1 
1 1 1 1 1 1 1 1 1 
1 1 1 1 1 1 1 1 1 
1 1 1 1 1 1 1 1 1 
1 1 1 1 1 1 1 1 1 
1 1 1 1 1 1 1 1 1 
1 1 1 1 1 1 1 1 1 
1 1 1 1 1 1 1 1 1 
1 1 1 1 1 1 1 1 1 
1 1 1 1 1 1 1 1 1 
1 1 1 1 1 1 1 1 1 
1 1 1 1 1 1 1 1 1 
1 1 1 1 1 1 1 1 1 
1 1 1 1 1 1 1 1 1 
1 1 1 1 1 1 1 1 1 
1 1 1 1 1 1 1 1 1 
1 1 1 1 1 1 1 1 1 
1 1 1 1 1 1 1 1 1 
1 1 1 1 1 1 1 1 1 
1 1 1 1 1 1 1 1 1 
1 1 1 1 1 1 1 1 1 
1 1 1 1 1 1 1 1 1 
1 1 1 1 1 1 1 1 1 
1 1 1 1 1 1 1 1 1 
1 1 1 1 1 1 1 1 1 
1 1 1 1 1 1 1 1 1 
1 1 1 1 1 1 1 1 1 
1 1 1 1 1 1 1 1 1 
1 1 1 1 1 1 1 1 1 
1 1 1 1 1 1 1 1 1 
1 1 1 1 1 1 1 1 1 
1 1 1 1 1 1 1 1 1 
1 1 1 1 1 1 1 1 1 
1 1 1 1 1 1 1 1 1 
1 1 1 1 1 1 1 1 1 
1 1 1 1 1 1 1 1 1 
1 1 1 1 1 1 1 1 1 
1 1 1 1 1 1 1 1 1 
1 1 1 1 1 1 1 1 1 
1 1 1 1 1 1 1 1 1 
1 1 1 1 1 1 1 1 1 
1 1 1 1 1 1 1 1 1 
1 1 1 1 1 1 1 1 1 
1 1 1 1 1 1 1 1 1 
1 1 1 1 1 1 1 1 1 
1 1 1 1 1 1 1 1 1 
1 1 1 1 1 1 1 1 1 
1 1 1 1 1 1 1 1 1 
1 1 1 1 1 1 1 1 1 
1 1 1 1 1 1 1 1 1 
1 1 1 1 1 1 1 1 1 
1 1 1 1 1 1 1 1 1 
1 1 1 1 1 1 1 1 1 
1 1 1 1 1 1 1 1 1 
1 1 1 1 1 1 1 1 1 
1 1 1 1 1 1 1 1 1 
1 1 1 1 1 1 1 1 1 
1 1 1 1 1 1 1 1 1 
1 1 1 1 1 1 1 1 1 
1 1 1 1 1 1 1 1 1 
1 1 1 1 1 1 1 1 1 
1 1 1 1 1 1 1 1 1 
1 1 1 1 1 1 1 1 1 
1 1 1 1 1 1 1 1 1 
1 1 1 1 1 1 1 1 1 
1 1 1 1 1 1 1 1 1 
1 1 1 1 1 1 1 1 1 
1 1 1 1 1 1 1 1 1 
1 1 1 1 1 1 1 1 1 
1 1 1 1 1 1 1 1 1 
1 1 1 1 1 1 1 1 1 
1 1 1 1 1 1 1 1 1 
1 1 1 1 1 1 1 1 1 
1 1 1 1 1 1 1 1 1 
1 1 1 1 1 1 1 1 1 
1 1 1 1 1 1 1 1 1 
1 1 1 1 1 1 1 1 1 
1 1 1 1 1 1 1 1 1 
1 1 1 1 1 1 1 1 1 
1 1 1 1 1 1 1 1 1 
1 1 1 1 1 1 1 1 1 
1 1 1 1 1 1 1 1 1 
1 1 1 1 1 1 1 1 1 
1 1 1 1 1 1 1 1 1 
1 1 1 1 1 1 1 1 1 
1 1 1 1 1 1 1 1 1 
1 1 1 1 1 1 1 1 1 
1 1 1 1 1 1 1 1 1 
1 1 1 1 1 1 1 1 1 
1 1 1 1 1 1 1 1 1 
1 1 1 1 1 1 1 1 1 
1 1 1 1 1 1 1 1 1 
1 1 1 1 1 1 1 1 1 
1 1 1 1 1 1 1 1 1 
1 1 1 1 1 1 1 1 1 
1 1 1 1 1 1 1 1 1 
1 1 1 1 1 1 1 1 1 
1 1 1 1 1 1 1 1 1 
1 1 1 1 1 1 1 1 1 
1 1 1 1 1 1 1 1 1 
1 1 1 1 1 1 1 1 1 
1 1 1 1 1 1 1 1 1 
1 1 1 1 1 1 1 1 1 
1 1 1 1 1 1 1 1 1 
1 1 1 1 1 1 1 1 1 
1 1 1 1 1 1 1 1 1 
1 1 1 1 1 1 1 1 1 
1 1 1 1 1 1 1 1 1 
1 1 1 1 1 1 1 1 1 
1 1 1 1 1 1 1 1 1 
1 1 1 1 1 1 1 1 1 
1 1 1 1 1 1 1 1 1 
1 1 1 1 1 1 1 1 1 
1 1 1 1 1 1 1 1 1 
1 1 1 1 1 1 1 1 1 
1 1 1 1 1 1 1 1 1 
1 1 1 1 1 1 1 1 1 
1 1 1 1 1 1 1 1 1 
1 1 1 1 1 1 1 1 1 
1 1 1 1 1 1 1 1 1 
1 1 1 1 1 1 1 1 1 
1 1 1 1 1 1 1 1 1 
1 1 1 1 1 1 1 1 1 
1 1 1 1 1 1 1 1 1 
1 1 1 1 1 1 1 1 1 
1 1 1 1 1 1 1 1 1 
1 1 1 1 1 1 1 1 1 
1 1 1 1 1 1 1 1 1 
1 1 1 1 1 1 1 1 1 
1 1 1 1 1 1 1 1 1 
1 1 1 1 1 1 1 1 1 
1 1 1 1 1 1 1 1 1 
1 1 1 1 1 1 1 1 1 
1 1 1 1 1 1 1 1 1 
1 1 1 1 1 1 1 1 1 
1 1 1 1 1 1 1 1 1 
1 1 1 1 1 1 1 1 1 
1 1 1 1 1 1 1 1 1 
1 1 1 1 1 1 1 1 1 
1 1 1 1 1 1 1 1 1 
1 1 1 1 1 1 1 1 1 
1 1 1 1 1 1 1 1 1 
1 1 1 1 1 1 1 1 1 
1 1 1 1 1 1 1 1 1 
1 1 1 1 1 1 1 1 1 
1 1 1 1 1 1 1 1 1 
1 1 1 1 1 1 1 1 1 
1 1 1 1 1 1 1 1 1 
1 1 1 1 1 1 1 1 1 
1 1 1 1 1 1 1 1 1 
1 1 1 1 1 1 1 1 1 
1 1 1 1 1 1 1 1 1 
1 1 1 1 1 1 1 1 1 
1 1 1 1 1 1 1 1 1 
1 1 1 1 1 1 1 1 1 
1 1 1 1 1 1 1 1 1 
1 1 1 1 1 1 1 1 1 
1 1 1 1 1 1 1 1 1 
1 1 1 1 1 1 1 1 1 
1 1 1 1 1 1 1 1 1 
1 1 1 1 1 1 1 1 1 
1 1 1 1 1 1 1 1 1 
1 1 1 1 1 1 1 1 1 
1 1 1 1 1 1 1 1 1 
1 1 1 1 1 1 1 1 1 
1 1 1 1 1 1 1 1 1 
1 1 1 1 1 1 1 1 1 
1 1 1 1 1 1 1 1 1 
1 1 1 1 1 1 1 1 1 
1 1 1 1 1 1 1 1 1 
1 1 1 1 1 1 1 1 1 
1 1 1 1 1 1 1 1 1 
1 1 1 1 1 1 1 1 1 
1 1 1 1 1 1 1 1 1 
1 1 1 1 1 1 1 1 1 
1 1 1 1 1 1 1 1 1 
1 1 1 1 1 1 1 1 1 
1 1 1 1 1 1 1 1 1 
1 1 1 1 1 1 1 1 1 
1 1 1 1 1 1 1 1 1 
1 1 1 1 1 1 1 1 1 
1 1 1 1 1 1 1 1 1 
1 1 1 1 1 1 1 1 1 
1 1 1 1 1 1 1 1 1 
1 1 1 1 1 1 1 1 1 
1 1 1 1 1 1 1 1 1 
1 1 1 1 1 1 1 1 1 
1 1 1 1 1 1 1 1 1 
1 1 1 1 1 1 1 1 1 
1 1 1 1 1 1 1 1 1 
1 1 1 1 1 1 1 1 1 
1 1 1 1 1 1 1 1 1 
1 1 1 1 1 1 1 1 1 
1 1 1 1 1 1 1 1 1 
1 1 1 1 1 1 1 1 1 
1 1 1 1 1 1 1 1 1 
1 1 1 1 1 1 1 1 1 
1 1 1 1 1 1 1 1 1 
1 1 1 1 1 1 1 1 1 
1 1 1 1 1 1 1 1 1 
1 1 1 1 1 1 1 1 1 
1 1 1 1 1 1 1 1 1 
1 1 1 1 1 1 1 1 1 
1 1 1 1 1 1 1 1 1 
1 1 1 1 1 1 1 1 1 
1 1 1 1 1 1 1 1 1 
1 1 1 1 1 1 1 1 1 
1 1 1 1 1 1 1 1 1 
1 1 1 1 1 1 1 1 1 
1 1 1 1 1 1 1 1 1 
1 1 1 1 1 1 1 1 1 
1 1 1 1 1 1 1 1 1 
1 1 1 1 1 1 1 1 1 
1 1 1 1 1 1 1 1 1 
1 1 1 1 1 1 1 1 1 
1 1 1 1 1 1 1 1 1 
1 1 1 1 1 1 1 1 1 
1 1 1 1 1 1 1 1 1 
1 1 1 1 1 1 1 1 1 
1 1 1 1 1 1 1 1 1 
1 1 1 1 1 1 1 1 1 
1 1 1 1 1 1 1 1 1 
1 1 1 1 1 1 1 1 1 
1 1 1 1 1 1 1 1 1 
1 1 1 1 1 1 1 1 1 
1 1 1 1 1 1 1 1 1 
1 1 1 1 1 1 1 1 1 
1 1 1 1 1 1 1 1 1 
1 1 1 1 1 1 1 1 1 
1 1 1 1 1 1 1 1 1 
1 1 1 1 1 1 1 1 1 
1 1 1 1 1 1 1 1 1 
1 1 1 1 1 1 1 1 1 
1 1 1 1 1 1 1 1 1 
1 1 1 1 1 1 1 1 1 
1 1 1 1 1 1 1 1 1 
1 1 1 1 1 1 1 1 1 
1 1 1 1 1 1 1 1 1 
1 1 1 1 1 1 1 1 1 
1 1 1 1 1 1 1 1 1 
1 1 1 1 1 1 1 1 1 
1 1 1 1 1 1 1 1 1 
1 1 1 1 1 1 1 1 1 
1 1 1 1 1 1 1 1 1 
1 1 1 1 1 1 1 1 1 
1 1 1 1 1 1 1 1 1 
1 1 1 1 1 1 1 1 1 
1 1 1 1 1 1 1 1 1 
1 1 1 1 1 1 1 1 1 
1 1 1 1 1 1 1 1 1 
1 1 1 1 1 1 1 1 1 
1 1 1 1 1 1 1 1 1 
1 1 1 1 1 1 1 1 1 
1 1 1 1 1 1 1 1 1 
1 1 1 1 1 1 1 1 1 
1 1 1 1 1 1 1 1 1 
1 1 1 1 1 1 1 1 1 
1 1 1 1 1 1 1 1 1 
1 1 1 1 1 1 1 1 1 
1 1 1 1 1 1 1 1 1 
1 1 1 1 1 1 1 1 1 
1 1 1 1 1 1 1 1 1 
1 1 1 1 1 1 1 1 1 
1 1 1 1 1 1 1 1 1 
1 1 1 1 1 1 1 1 1 
1 1 1 1 1 1 1 1 1 
1 1 1 1 1 1 1 1 1 
1 1 1 1 1 1 1 1 1 
1 1 1 1 1 1 1 1 1 
1 1 1 1 1 1 1 1 1 
1 1 1 1 1 1 1 1 1 
1 1 1 1 1 1 1 1 1 
1 1 1 1 1 1 1 1 1 
1 1 1 1 1 1 1 1 1 
1 1 1 1 1 1 1 1 1 
1 1 1 1 1 1 1 1 1 
1 1 1 1 1 1 1 1 1 
1 1 1 1 1 1 1 1 1 
1 1 1 1 1 1 1 1 1 
1 1 1 1 1 1 1 1 1 
1 1 1 1 1 1 1 1 1 
1 1 1 1 1 1 1 1 1 
1 1 1 1 1 1 1 1 1 
1 1 1 1 1 1 1 1 1 
1 1 1 1 1 1 1 1 1 
1 1 1 1 1 1 1 1 1 
1 1 1 1 1 1 1 1 1 
1 1 1 1 1 1 1 1 1 
1 1 1 1 1 1 1 1 1 
1 1 1 1 1 1 1 1 1 
1 1 1 1 1 1 1 1 1 
1 1 1 1 1 1 1 1 1 
1 1 1 1 1 1 1 1 1 
1 1 1 1 1 1 1 1 1 
1 1 1 1 1 1 1 1 1 
1 1 1 1 1 1 1 1 1 
1 1 1 1 1 1 1 1 1 
1 1 1 1 1 1 1 1 1 
1 1 1 1 1 1 1 1 1 
1 1 1 1 1 1 1 1 1 
1 1 1 1 1 1 1 1 1 
1 1 1 1 1 1 1 1 1 
1 1 1 1 1 1 1 1 1 
1 1 1 1 1 1 1 1 1 
1 1 1 1 1 1 1 1 1 
1 1 1 1 1 1 1 1 1 
1 1 1 1 1 1 1 1 1 
1 1 1 1 1 1 1 1 1 
1 1 1 1 1 1 1 1 1 
1 1 1 1 1 1 1 1 1 
1 1 1 1 1 1 1 1 1 
1 1 1 1 1 1 1 1 1 
1 1 1 1 1 1 1 1 1 
1 1 1 1 1 1 1 1 1 
1 1 1 1 1 1 1 1 1 
1 1 1 1 1 1 1 1 1 
1 1 1 1 1 1 1 1 1 
1 1 1 1 1 1 1 1 1 
1 1 1 1 1 1 1 1 1 
1 1 1 1 1 1 1 1 1 
1 1 1 1 1 1 1 1 1 
1 1 1 1 1 1 1 1 1 
1 1 1 1 1 1 1 1 1 
1 1 1 1 1 1 1 1 1 
1 1 1 1 1 1 1 1 1 
1 1 1 1 1 1 1 1 1 
1 1 1 1 1 1 1 1 1 
1 1 1 1 1 1 1 1 1 
1 1 1 1 1 1 1 1 1 
1 1 1 1 1 1 1 1 1 
1 1 1 1 1 1 1 1 1 
1 1 1 1 1 1 1 1 1 
1 1 1 1 1 1 1 1 1 
1 1 1 1 1 1 1 1 1 
1 1 1 1 1 1 1 1 1 
1 1 1 1 1 1 1 1 1 
1 1 1 1 1 1 1 1 1 
1 1 1 1 1 1 1 1 1 
1 1 1 1 1 1 1 1 1 
1 1 1 1 1 1 1 1 1 
1 1 1 1 1 1 1 1 1 
1 1 1 1 1 1 1 1 1 
1 1 1 1 1 1 1 1 1 
1 1 1 1 1 1 1 1 1 
1 1 1 1 1 1 1 1 1 
1 1 1 1 1 1 1 1 1 
1 1 1 1 1 1 1 1 1 
1 1 1 1 1 1 1 1 1 
1 1 1 1 1 1 1 1 1 
1 1 1 1 1 1 1 1 1 
1 1 1 1 1 1 1 1 1 
1 1 1 1 1 1 1 1 1 
1 1 1 1 1 1 1 1 1 
1 1 1 1 1 1 1 1 1 
1 1 1 1 1 1 1 1 1 
1 1 1 1 1 1 1 1 1 
1 1 1 1 1 1 1 1 1 
1 1 1 1 1 1 1 1 1 
1 1 1 1 1 1 1 1 1 
1 1 1 1 1 1 1 1 1 
1 1 1 1 1 1 1 1 1 
1 1 1 1 1 1 1 1 1 
1 1 1 1 1 1 1 1 1 
1 1 1 1 1 1 1 1 1 
1 1 1 1 1 1 1 1 1 
1 1 1 1 1 1 1 1 1 
1 1 1 1 1 1 1 1 1 
1 1 1 1 1 1 1 1 1 
1 1 1 1 1 1 1 1 1 
1 1 1 1 1 1 1 1 1 
1 1 1 1 1 1 1 1 1 
1 1 1 1 1 1 1 1 1 
1 1 1 1 1 1 1 1 1 
1 1 1 1 1 1 1 1 1 
1 1 1 1 1 1 1 1 1 
1 1 1 1 1 1 1 1 1 
1 1 1 1 1 1 1 1 1 
1 1 1 1 1 1 1 1 1 
1 1 1 1 1 1 1 1 1 
1 1 1 1 1 1 1 1 1 
1 1 1 1 1 1 1 1 1 
1 1 1 1 1 1 1 1 1 
1 1 1 1 1 1 1 1 1 
1 1 1 1 1 1 1 1 1 
1 1 1 1 1 1 1 1 1 
1 1 1 1 1 1 1 1 1 
1 1 1 1 1 1 1 1 1 
1 1 1 1 1 1 1 1 1 
1 1 1 1 1 1 1 1 1 
1 1 1 1 1 1 1 1 1 
1 1 1 1 1 1 1 1 1 
1 1 1 1 1 1 1 1 1 
1 1 1 1 1 1 1 1 1 
1 1 1 1 1 1 1 1 1 
1 1 1 1 1 1 1 1 1 
1 1 1 1 1 1 1 1 1 
1 1 1 1 1 1 1 1 1 
1 1 1 1 1 1 1 1 1 
1 1 1 1 1 1 1 1 1 
1 1 1 1 1 1 1 1 1 
1 1 1 1 1 1 1 1 1 
1 1 1 1 1 1 1 1 1 
1 1 1 1 1 1 1 1 1 
1 1 1 1 1 1 1 1 1 
1 1 1 1 1 1 1 1 1 
1 1 1 1 1 1 1 1 1 
1 1 1 1 1 1 1 1 1 
1 1 1 1 1 1 1 1 1 
1 1 1 1 1 1 1 1 1 
1 1 1 1 1 1 1 1 1 
1 1 1 1 1 1 1 1 1 
1 1 1 
NORMALS normals float
0 -0.0525588 -0.998618 0 -0.707107 -0.707107 -0.687243 -0.0381802 -0.725423 
0.996928 -0.0553849 -0.0553849 0 0 -1 -0.687745 0 -0.725953 
0.566666 -0.566666 -0.598147 -0.0524864 0.0524864 -0.997241 -0.706618 0.0371904 -0.706618 
0.587473 -0.556553 -0.587473 0.0525588 0 -0.998618 0.707107 0 -0.707107 
-0.0371904 0.706618 -0.706618 0.0381802 0.687243 -0.725423 -0.0525588 0 -0.998618 
-0.0381802 -0.687243 -0.725423 -0.707107 0 -0.707107 0 0 -1 
0 -0.687745 -0.725953 0 0 -1 0 -0.687745 -0.725953 
0 0 -1 0 -0.687745 -0.725953 0 0 -1 
0 -0.687745 -0.725953 0 0 -1 0 -0.687745 -0.725953 
0 0 -1 0 -0.687745 -0.725953 0 0 -1 
0 -0.687745 -0.725953 0 0 -1 0 -0.687745 -0.725953 
0 0 -1 0 -0.687745 -0.725953 0.0525588 0 -0.998618 
0.0381802 -0.687243 -0.725423 0.707107 0 -0.707107 -0.0381802 0.687243 -0.725423 
0 0.687745 -0.725953 0 0.687745 -0.725953 0 0.687745 -0.725953 
0 0.687745 -0.725953 0 0.687745 -0.725953 0 0.687745 -0.725953 
0 0.687745 -0.725953 0 0.687745 -0.725953 0 0.687745 -0.725953 
0.0381802 0.687243 -0.725423 -0.0524864 -0.0524864 -0.997241 -0.0371904 -0.706618 -0.706618 
-0.706618 -0.0371904 -0.706618 0 -0.0525588 -0.998618 0 -0.707107 -0.707107 
0 -0.0525588 -0.998618 0 -0.707107 -0.707107 0 -0.0525588 -0.998618 
0 -0.707107 -0.707107 0 -0.0525588 -0.998618 0 -0.707107 -0.707107 
0 -0.0525588 -0.998618 0 -0.707107 -0.707107 0 -0.0525588 -0.998618 
0 -0.707107 -0.707107 0 -0.0525588 -0.998618 0 -0.707107 -0.707107 
0 -0.0525588 -0.998618 0 -0.707107 -0.707107 0.0524864 -0.0524864 -0.997241 
0.0371904 -0.706618 -0.706618 0.997241 -0.0524864 -0.0524864 -0.0525588 0 -0.998618 
-0.707107 0 -0.707107 0 0 -1 0 0 -1 
0 0 -1 0 0 -1 0 0 -1 
0 0 -1 0 0 -1 0 0 -1 
0.0525588 0 -0.998618 0.998618 0 -0.0525588 -0.0525588 0 -0.998618 
-0.707107 0 -0.707107 0 0 -1 0 0 -1 
0 0 -1 0 0 -1 0 0 -1 
0 0 -1 0 0 -1 0 0 -1 
0.0381802 -0.687243 -0.725423 0.998618 0 -0.0525588 -0.0525588 0 -0.998618 
-0.707107 0 -0.707107 0 0 -1 0 0 -1 
0 0 -1 0 0 -1 0 0 -1 
0 0 -1 0 0 -1 -0.687745 0 -0.725953 
0.598147 -0.566666 -0.566666 -0.0525588 0 -0.998618 -0.707107 0 -0.707107 
0 0 -1 0 0 -1 0 0 -1 
0 0 -1 0 0 -1 0 0 -1 
0 0 -1 -0.687745 0 -0.725953 0.556553 -0.587473 -0.587473 
0.556553 -0.587473 -0.587473 0.0524864 -0.0524864 -0.997241 0.0524864 -0.997241 -0.0524864 
0.997241 -0.0524864 -0.0524864 -0.0525588 0 -0.998618 -0.707107 0 -0.707107 
0 0 -1 0 0 -1 0 0 -1 
0 0 -1 0 0 -1 0 0 -1 
0 0 -1 -0.687745 0 -0.725953 0.707107 0 -0.707107 
0.998618 0 -0.0525588 -0.0525588 0 -0.998618 -0.707107 0 -0.707107 
0 0 -1 0 0 -1 0 0 -1 
0 0 -1 0 0 -1 0 0 -1 
0 0 -1 0 0 -1 0 0.687745 -0.725953 
0 0.687745 -0.725953 0.0525588 0 -0.998618 0.998618 0 -0.0525588 
-0.0525588 0 -0.998618 -0.707107 0 -0.707107 0 0 -1 
0 0 -1 0 0 -1 0 0 -1 
0 0 -1 0 0 -1 0 0 -1 
0 0 -1 0 0 -1 0 0 -1 
0.0525588 0 -0.998618 0.998618 0 -0.0525588 -0.0381802 -0.687243 -0.725423 
-0.587473 -0.556553 -0.587473 0 -0.687745 -0.725953 0 -0.687745 -0.725953 
0 -0.687745 -0.725953 0 -0.687745 -0.725953 0 -0.687745 -0.725953 
0 -0.687745 -0.725953 0 -0.687745 -0.725953 0 -0.687745 -0.725953 
0 -0.687745 -0.725953 0 -0.687745 -0.725953 0.0525588 0 -0.998618 
0.998618 0 -0.0525588 -0.707107 0 -0.707107 -0.587473 -0.556553 -0.587473 
-0.707107 0 -0.707107 0.707107 0 -0.707107 0.998618 0 -0.0525588 
-0.587473 0.556553 -0.587473 -0.0381802 0.687243 -0.725423 -0.587473 0.556553 -0.587473 
0 0.687745 -0.725953 0 0.687745 -0.725953 0 0.687745 -0.725953 
0 0.687745 -0.725953 0 0.687745 -0.725953 0 0.687745 -0.725953 
0 0.687745 -0.725953 0 0.687745 -0.725953 0 0.687745 -0.725953 
0 0.687745 -0.725953 0.0525588 0 -0.998618 0.998618 0 -0.0525588 
-0.0525588 0 -0.998618 -0.707107 0 -0.707107 0 0 -1 
0 0 -1 0 0 -1 0 0 -1 
0 0 -1 0 0 -1 0 0 -1 
0 0 -1 0 0 -1 0 0 -1 
0.0525588 0 -0.998618 0.998618 0 -0.0525588 -0.0525588 0 -0.998618 
-0.707107 0 -0.707107 0 0 -1 0 0 -1 
0 0 -1 0 0 -1 0 0 -1 
0 0 -1 0 0 -1 0 0 -1 
0 0 -1 0 0 -1 0.0525588 0 -0.998618 
0.998618 0 -0.0525588 -0.0525588 0 -0.998618 -0.707107 0 -0.707107 
0 0 -1 0 0 -1 0 0 -1 
0 0 -1 0 0 -1 0 0 -1 
0 0 -1 0 0 -1 0 0 -1 
0 0 -1 0.0525588 0 -0.998618 0.998618 0 -0.0525588 
-0.0525588 0 -0.998618 -0.707107 0 -0.707107 0 0 -1 
0 0 -1 0 0 -1 0 0 -1 
0 0 -1 0 0 -1 0 0 -1 
0 0 -1 0 0 -1 0 0 -1 
0.0525588 0 -0.998618 0.998618 0 -0.0525588 -0.0525588 0 -0.998618 
-0.707107 0 -0.707107 0 0 -1 0 0 -1 
0 0 -1 0 0 -1 0 0 -1 
0 0 -1 0 0 -1 0 0 -1 
0 0 -1 0 0 -1 0.0525588 0 -0.998618 
0.998618 0 -0.0525588 -0.0525588 0 -0.998618 -0.707107 0 -0.707107 
0 0 -1 0 0 -1 0 0 -1 
0 0 -1 0 0 -1 0 0 -1 
0 0 -1 0 0 -1 0 0 -1 
0 0 -1 0.0524864 0.0524864 -0.997241 0.997241 0.0524864 -0.0524864 
-0.0524864 0.0524864 -0.997241 -0.997241 0.0524864 -0.0524864 0 0.0525588 -0.998618 
0 0.0525588 -0.998618 0 0.0525588 -0.998618 0 0.0525588 -0.998618 
0 0.0525588 -0.998618 0 0.0525588 -0.998618 0 0.0525588 -0.998618 
0 0.0525588 -0.998618 0 0.0525588 -0.998618 0.0524864 0.0524864 -0.997241 
0.57735 0.57735 -0.57735 0.57735 0.57735 -0.57735 -0.0524864 0.997241 -0.0524864 
0 0.998618 -0.0525588 0 0.998618 -0.0525588 0 0.998618 -0.0525588 
0 0.998618 -0.0525588 0 0.998618 -0.0525588 0 0.998618 -0.0525588 
0 0.998618 -0.0525588 0 0.998618 -0.0525588 0 0.998618 -0.0525588 
0.0524864 0.997241 -0.0524864 -0.0524864 -0.0524864 -0.997241 -0.0371904 -0.706618 -0.706618 
-0.706618 -0.0371904 -0.706618 0 -0.707107 -0.707107 0 -0.707107 -0.707107 
0 -0.707107 -0.707107 0 -0.707107 -0.707107 0 -0.707107 -0.707107 
0 -0.707107 -0.707107 0 -0.707107 -0.707107 0 -0.707107 -0.707107 
0 -0.707107 -0.707107 0 -0.707107 -0.707107 0 -0.707107 -0.707107 
0 -0.707107 -0.707107 0 -0.707107 -0.707107 0 -0.707107 -0.707107 
0 -0.707107 -0.707107 0 -0.707107 -0.707107 0 -0.707107 -0.707107 
0 -0.707107 -0.707107 0.0371904 -0.706618 -0.706618 0.0371904 -0.706618 -0.706618 
0.997241 -0.0524864 -0.0524864 -0.707107 0 -0.707107 -0.707107 0 -0.707107 
1 0 0 -0.707107 0 -0.707107 -0.707107 0 -0.707107 
1 0 0 -0.707107 0 -0.707107 -0.707107 0 -0.707107 
0.725953 -0.687745 0 -0.707107 0 -0.707107 -0.707107 0 -0.707107 
0.707107 -0.707107 0 0.587473 -0.587473 -0.556553 0.707107 -0.707107 0 
-0.707107 0 -0.707107 -0.707107 0 -0.707107 0.707107 -0.707107 0 
0.998618 -0.0525588 0 -0.707107 0 -0.707107 -0.707107 0 -0.707107 
1 0 0 -0.707107 0 -0.707107 -0.707107 0 -0.707107 
1 0 0 -0.707107 0 -0.707107 -0.707107 0 -0.707107 
1 0 0 -0.587473 -0.556553 -0.587473 -0.587473 -0.556553 -0.587473 
1 0 0 -0.707107 0 -0.707107 -0.587473 -0.556553 -0.587473 
-0.998618 0 -0.0525588 1 0 0 -0.587473 0.556553 -0.587473 
-0.587473 0.556553 -0.587473 -0.587473 0.556553 -0.587473 1 0 0 
-0.707107 0 -0.707107 -0.707107 0 -0.707107 1 0 0 
-0.707107 0 -0.707107 -0.707107 0 -0.707107 1 0 0 