# vtk DataFile Version 3.0
vtk output
ASCII
DATASET POLYDATA
POINTS 4688 float
35 100 85.0159 35 99.0159 86 34.0159 100 86 
36 100 85.0159 36 99.0159 86 37 100 85.0159 
37 99.0159 86 38 100 85.0159 38 99.0159 86 
38.9841 100 86 34 101 85.0159 34 100.016 86 
33.0159 101 86 35 101 85.0159 36 101 85.0159 
37 101 85.0159 38 101 85.0159 38.9841 101 86 
23 102 85.0159 23 101.016 86 22.0159 102 86 
24 102 85.0159 24 101.016 86 25 102 85.0159 
25 101.016 86 26 102 85.0159 26 101.016 86 
27 102 85.0159 27 101.016 86 28 102 85.0159 
28 101.016 86 29 102 85.0159 29 101.016 86 
30 102 85.0159 30 101.016 86 31 102 85.0159 
31 101.016 86 32 102 85.0159 32 101.016 86 
33 102 85.0159 33 101.016 86 34 102 85.0159 
35 102 85.0159 36 102 85.0159 37 102 85.0159 
38 102 85.0159 38.9841 102 86 23 103 85.0159 
22.0159 103 86 24 103 85.0159 25 103 85.0159 
26 103 85.0159 27 103 85.0159 28 103 85.0159 
29 103 85.0159 30 103 85.0159 31 103 85.0159 
32 103 85.0159 33 103 85.0159 34 103 85.0159 
35 103 85.0159 36 103 85.0159 37 103 85.0159 
37.9841 103 86 38 102.984 86 23 103.984 86 
24 103.984 86 25 103.984 86 26 103.984 86 
27 103.984 86 28 103.984 86 29 103.984 86 
30 103.984 86 30.0159 104 86 31 104 85.0159 
32 104 85.0159 33 104 85.0159 34 104 85.0159 
35 104 85.0159 36 104 85.0159 36.9841 104 86 
37 103.984 86 31 105 85.0159 30.0159 105 86 
32 105 85.0159 33 105 85.0159 34 105 85.0159 
35 105 85.0159 35.9841 105 86 36 104.984 86 
31 105.984 86 32 105.984 86 33 105.984 86 
34 105.984 86 35 105.984 86 35 99.0159 87 
34.0159 100 87 36 99.0159 87 37 99.0159 87 
38 99.0159 87 38.9841 100 87 23 101 86.0159 
23 100.016 87 22.0159 101 87 24 101 86.0159 
24 100.016 87 24.9841 101 87 34 100.016 87 
33.0159 101 87 38.9841 101 87 22.0159 102 87 
25 101.016 87 26 101.016 87 27 101.016 87 
28 101.016 87 29 101.016 87 30 101.016 87 
31 101.016 87 32 101.016 87 33 101.016 87 
38.9841 102 87 22.0159 103 87 38 103 86.0159 
38.9841 103 87 23 103.984 87 24 103.984 87 
25 103.984 87 26 103.984 87 27 103.984 87 
28 103.984 87 29 103.984 87 30 104 86.0159 
29.0159 104 87 36.9841 104 87 37 103.984 87 
38 103.984 87 30 104.984 87 30.0159 105 87 
35.9841 105 87 36 104.984 87 31 105.984 87 
32 105.984 87 33 105.984 87 34 105.984 87 
35 105.984 87 35 99.0159 88 34.0159 100 88 
36 99.0159 88 37 99.0159 88 38 99.0159 88 
39 100 87.0159 39 99.0159 88 40 100 87.0159 
40 99.0159 88 40.9841 100 88 23 101 87.9841 
23.0159 101 88 24 100.016 88 24.9841 101 88 
34 100.016 88 33.0159 101 88 39 101 87.0159 
40 101 87.0159 40.9841 101 88 23 101.016 88 
22.0159 102 88 25 101.016 88 26 101.016 88 
27 101.016 88 28 101.016 88 29 101.016 88 
30 101.016 88 31 101.016 88 32 101.016 88 
33 101.016 88 39 102 87.0159 40 102 87.0159 
40.9841 102 88 22.0159 103 88 39 103 87.0159 
39.9841 103 88 40 102.984 88 23 104 87.0159 
22.0159 104 88 24 104 87.0159 24.9841 104 88 
25 103.984 88 26 103.984 88 27 104 87.0159 
26.0159 104 88 28 104 87.0159 29 104 87.0159 
37 104 87.0159 38 104 87.0159 38.9841 104 88 
39 103.984 88 23 105 87.0159 22.0159 105 88 
23.9841 105 88 24 104.984 88 27 105 87.0159 
26.0159 105 88 28 105 87.0159 29 105 87.0159 
30 105 87.0159 36 105 87.0159 37 105 87.0159 
37.9841 105 88 38 104.984 88 23 105.984 88 
27 105.984 88 28 105.984 88 29 105.984 88 
30 105.984 88 31 105.984 88 32 105.984 88 
33 105.984 88 34 105.984 88 35 105.984 88 
36 105.984 88 37 105.984 88 23 97 88.0159 
23 96.0159 89 22.0159 97 89 23.9841 97 89 
23 97.9841 89 24 99 88.0159 24 98.0159 89 
23.0159 99 89 24.9841 99 89 24 100 88.0159 
23.0159 100 89 24.9841 100 89 34 100 88.0159 
34 99.0159 89 33.0159 100 89 35 99.0159 89 
36 99.0159 89 37 99.0159 89 38 99.0159 89 
39 99.0159 89 40 99.0159 89 40.9841 100 89 
23 101 88.0159 23 100.016 89 22.0159 101 89 
25 101 88.0159 25 100.016 89 26 101 88.0159 
26 100.016 89 27 101 88.0159 27 100.016 89 
28 101 88.0159 28 100.016 89 29 101 88.0159 
29 100.016 89 30 101 88.0159 30 100.016 89 
31 101 88.0159 31 100.016 89 32 101 88.0159 
32 100.016 89 33 101 88.0159 33 100.016 89 
40.9841 101 89 22.0159 102 89 40.9841 102 89 
22.0159 103 89 39.9841 103 89 40 102.984 89 
22.0159 104 89 24.9841 104 89 25 103.984 89 
26 103.984 89 26.0159 104 89 38.9841 104 89 
39 103.984 89 22.0159 105 89 23.9841 105 89 
24 104.984 89 26.0159 105 89 37.9841 105 89 
38 104.984 89 23 105.984 89 27 105.984 89 
28 105.984 89 29 105.984 89 30 105.984 89 
31 105.984 89 32 105.984 89 33 105.984 89 
34 105.984 89 35 105.984 89 36 105.984 89 
37 105.984 89 23 96 89.0159 23 95.0159 90 
22.0159 96 90 24 96 89.0159 24 95.0159 90 
24.9841 96 90 22.0159 97 90 24 97 89.0159 
24.9841 97 90 23 98 89.0159 22.0159 98 90 
24 98 89.0159 24.9841 98 90 23 99 89.0159 
22.0159 99 90 24.9841 99 90 23 100 89.0159 
22.0159 100 90 25 99.0159 90 25 100 89.0159 
26 100 89.0159 26 99.0159 90 27 100 89.0159 
27 99.0159 90 28 100 89.0159 28 99.0159 90 
29 100 89.0159 29 99.0159 90 30 100 89.0159 
30 99.0159 90 31 100 89.0159 31 99.0159 90 
32 100 89.0159 32 99.0159 90 33 100 89.0159 
33 99.0159 90 34 99.0159 90 35 99.0159 90 
36 99.0159 90 37 99.0159 90 38 99.0159 90 
39 99.0159 90 40 99.0159 90 40.9841 100 90 
22.0159 101 90 40.9841 101 90 22.0159 102 90 
40.9841 102 90 22.0159 103 90 39.9841 103 90 
40 102.984 90 22.0159 104 90 24.9841 104 90 
25 103.984 90 26 103.984 90 26.0159 104 90 
38.9841 104 90 39 103.984 90 22.0159 105 90 
23.9841 105 90 24 104.984 90 26.0159 105 90 
37.9841 105 90 38 104.984 90 23 105.984 90 
27 105.984 90 28 105.984 90 29 105.984 90 
30 105.984 90 31 105.984 90 32 105.984 90 
33 105.984 90 34 105.984 90 35 105.984 90 
36 105.984 90 37 105.984 90 23 95 90.0159 
23 94.0159 91 22.0159 95 91 23.9841 95 91 
22.0159 96 91 24 95.0159 91 24.9841 96 91 
22.0159 97 91 24.9841 97 91 22.0159 98 91 
24.9841 98 91 22.0159 99 91 24.9841 99 91 
26 99 90.0159 26 98.0159 91 25.0159 99 91 
27 99 90.0159 27 98.0159 91 28 99 90.0159 
28 98.0159 91 29 99 90.0159 29 98.0159 91 
30 99 90.0159 30 98.0159 91 31 99 90.0159 
31 98.0159 91 32 99 90.0159 32 98.0159 91 
33 99 90.0159 33 98.0159 91 34 99 90.0159 
34 98.0159 91 35 99 90.0159 35 98.0159 91 
36 99 90.0159 36 98.0159 91 37 99 90.0159 
37 98.0159 91 38 99 90.0159 38 98.0159 91 
39 99 90.0159 39 98.0159 91 40 99 90.0159 
40 98.0159 91 40.9841 99 91 22.0159 100 91 
25 99.0159 91 40.9841 100 91 22.0159 101 91 
40 101 90.9841 39.9841 101 91 40 100.984 91 
22.0159 102 91 40 102 90.9841 39.9841 102 91 
22.0159 103 91 39 103 90.9841 38.9841 103 91 
39 102.984 91 22.0159 104 91 24.9841 104 91 
25 103.984 91 26 103.984 91 26.0159 104 91 
38.9841 104 91 22.0159 105 91 23.9841 105 91 
24 104.984 91 26.0159 105 91 37.9841 105 91 
38 104.984 91 23 105.984 91 27 105.984 91 
28 105.984 91 29 105.984 91 30 105.984 91 
31 105.984 91 32 105.984 91 33 105.984 91 
34 105.984 91 35 105.984 91 36 105.984 91 
37 105.984 91 23 92 91.0159 23 91.0159 92 
22.0159 92 92 24 92 91.0159 24 91.0159 92 
24.9841 92 92 23 93 91.0159 22.0159 93 92 
24 93 91.0159 24.9841 93 92 23 94 91.0159 
22.0159 94 92 24 94 91.0159 24.9841 94 92 
22.0159 95 92 24 95 91.0159 24.9841 95 92 
22.0159 96 92 24.9841 96 92 22.0159 97 92 
24.9841 97 92 22.0159 98 92 24.9841 98 92 
27 98 91.0159 27 97.0159 92 26.0159 98 92 
28 98 91.0159 28 97.0159 92 29 98 91.0159 
29 97.0159 92 30 98 91.0159 30 97.0159 92 
31 98 91.0159 31 97.0159 92 32 98 91.0159 
32 97.0159 92 33 98 91.0159 33 97.0159 92 
34 98 91.0159 34 97.0159 92 35 98 91.0159 
35 97.0159 92 36 98 91.0159 36 97.0159 92 
37 98 91.0159 37 97.0159 92 38 98 91.0159 
38 97.0159 92 39 98 91.0159 39 97.0159 92 
40 98 91.0159 40 97.0159 92 40.9841 98 92 
22.0159 99 92 24.9841 99 92 26 98.0159 92 
25.0159 99 92 40.9841 99 92 22.0159 100 92 
25 99.0159 92 40.9841 100 92 22.0159 101 92 
39.9841 101 92 40 100.984 92 22.0159 102 92 
39 102 91.9841 38.9841 102 92 39 101.984 92 
22.0159 103 92 38.9841 103 92 22.0159 104 92 
24.9841 104 92 25 103.984 92 26 103.984 92 
26.0159 104 92 38.9841 104 92 22.0159 105 92 
23.9841 105 92 24 104.984 92 26.0159 105 92 
37.9841 105 92 38 104.984 92 23 105.984 92 
27 105.984 92 28 105.984 92 29 105.984 92 
30 105.984 92 31 105.984 92 32 105.984 92 
33 105.984 92 34 105.984 92 35 105.984 92 
36 105.984 92 37 105.984 92 26 72 92.0159 
26 71.0159 93 25.0159 72 93 26.9841 72 93 
26 72.9841 93 23 91.0159 93 22.0159 92 93 
24 91.0159 93 24.9841 92 93 22.0159 93 93 
24.9841 93 93 22.0159 94 93 24.9841 94 93 
22.0159 95 93 24.9841 95 93 22.0159 96 93 
24.9841 96 93 40 96 92.0159 40 95.0159 93 
39.0159 96 93 40.9841 96 93 22.0159 97 93 
24.9841 97 93 38 97 92.0159 38 96.0159 93 
37.0159 97 93 39 97 92.0159 39 96.0159 93 
40 97 92.0159 40.9841 97 93 22.0159 98 93 
24.9841 98 93 27 97.0159 93 26.0159 98 93 
28 97.0159 93 29 97.0159 93 30 97.0159 93 
31 97.0159 93 32 97.0159 93 33 97.0159 93 
34 97.0159 93 35 97.0159 93 36 97.0159 93 
37 97.0159 93 40.9841 98 93 22.0159 99 93 
24.9841 99 93 26 98.0159 93 25.0159 99 93 
40.9841 99 93 22.0159 100 93 25 99.0159 93 
40.9841 100 93 22.0159 101 93 39.9841 101 93 
40 100.984 93 22.0159 102 93 38.9841 102 93 
39 101.984 93 22.0159 103 93 38.9841 103 93 
22.0159 104 93 24 104 92.9841 23.9841 104 93 
24 103.984 93 25 103.984 93 26 103.984 93 
26.0159 104 93 38.9841 104 93 23 104.984 93 
23 105 92.9841 27 104.984 93 27 105 92.9841 
28 104.984 93 28 105 92.9841 29 104.984 93 
29 105 92.9841 30 104.984 93 30 105 92.9841 
30.0159 105 93 37.9841 105 93 38 104.984 93 
31 105.984 93 32 105.984 93 33 105.984 93 
34 105.984 93 35 105.984 93 36 105.984 93 
37 105.984 93 25 72 93.0159 25 71.0159 94 
24.0159 72 94 26 71.0159 94 27 72 93.0159 
27 71.0159 94 28 72 93.0159 28 71.0159 94 
28.9841 72 94 25 73 93.0159 24.0159 73 94 
26 73 93.0159 27 73 93.0159 27.9841 73 94 
28 72.9841 94 25 73.9841 94 26 73.9841 94 
27 73.9841 94 45 82 93.0159 45 81.0159 94 
44.0159 82 94 46 82 93.0159 46 81.0159 94 
46.9841 82 94 45 83 93.0159 44.0159 83 94 
46 83 93.0159 46.9841 83 94 45 84 93.0159 
44.0159 84 94 46 84 93.0159 46.9841 84 94 
45 85 93.0159 44.0159 85 94 45.9841 85 94 
46 84.9841 94 45 85.9841 94 23 91.0159 94 
[...]
POINT_DATA 4688
SCALARS scalars float
LOOKUP_TABLE default
1 1 1 1 1 1 1 1 1 
1 1 1 1 1 1 1 1 1 
1 1 1 1 1 1 1 1 1 
1 1 1 1 1 1 1 1 1 
1 1 1 1 1 1 1 1 1 
1 1 1 1 1 1 1 1 1 
1 1 1 1 1 1 1 1 1 
1 1 1 1 1 1 1 1 1 
1 1 1 1 1 1 1 1 1 
1 1 1 1 1 1 1 1 1 
1 1 1 1 1 1 1 1 1 
1 1 1 1 1 1 1 1 1 
1 1 1 1 1 1 1 1 1 
1 1 1 1 1 1 1 1 1 
1 1 1 1 1 1 1 1 1 
1 1 1 1 1 1 1 1 1 
1 1 1 1 1 1 1 1 1 
1 1 1 1 1 1 1 1 1 
1 1 1 1 1 1 1 1 1 
1 1 1 1 1 1 1 1 1 
1 1 1 1 1 1 1 1 1 
1 1 1 1 1 1 1 1 1 
1 1 1 1 1 1 1 1 1 
1 1 1 1 1 1 1 1 1 
1 1 1 1 1 1 1 1 1 
1 1 1 1 1 1 1 1 1 
1 1 1 1 1 1 1 1 1 
1 1 1 1 1 1 1 1 1 
1 1 1 1 1 1 1 1 1 
1 1 1 1 1 1 1 1 1 
1 1 1 1 1 1 1 1 1 
1 1 1 1 1 1 1 1 1 
1 1 1 1 1 1 1 1 1 
1 1 1 1 1 1 1 1 1 
1 1 1 1 1 1 1 1 1 
1 1 1 1 1 1 1 1 1 
1 1 1 1 1 1 1 1 1 
1 1 1 1 1 1 1 1 1 
1 1 1 1 1 1 1 1 1 
1 1 1 1 1 1 1 1 1 
1 1 1 1 1 1 1 1 1 
1 1 1 1 1 1 1 1 1 
1 1 1 1 1 1 1 1 1 
1 1 1 1 1 1 1 1 1 
1 1 1 1 1 1 1 1 1 
1 1 1 1 1 1 1 1 1 
1 1 1 1 1 1 1 1 1 
1 1 1 1 1 1 1 1 1 
1 1 1 1 1 1 1 1 1 
1 1 1 1 1 1 1 1 1 
1 1 1 1 1 1 1 1 1 
1 1 1 1 1 1 1 1 1 
1 1 1 1 1 1 1 1 1 
1 1 1 1 1 1 1 1 1 
1 1 1 1 1 1 1 1 1 
1 1 1 1 1 1 1 1 1 
1 1 1 1 1 1 1 1 1 
1 1 1 1 1 1 1 1 1 
1 1 1 1 1 1 1 1 1 
1 1 1 1 1 1 1 1 1 
1 1 1 1 1 1 1 1 1 
1 1 1 1 1 1 1 1 1 
1 1 1 1 1 1 1 1 1 
1 1 1 1 1 1 1 1 1 
1 1 1 1 1 1 1 1 1 
1 1 1 1 1 1 1 1 1 
1 1 1 1 1 1 1 1 1 
1 1 1 1 1 1 1 1 1 
1 1 1 1 1 1 1 1 1 
1 1 1 1 1 1 1 1 1 
1 1 1 1 1 1 1 1 1 
1 1 1 1 1 1 1 1 1 
1 1 1 1 1 1 1 1 1 
1 1 1 1 1 1 1 1 1 
1 1 1 1 1 1 1 1 1 
1 1 1 1 1 1 1 1 1 
1 1 1 1 1 1 1 1 1 
1 1 1 1 1 1 1 1 1 
1 1 1 1 1 1 1 1 1 
1 1 1 1 1 1 1 1 1 
1 1 1 1 1 1 1 1 1 
1 1 1 1 1 1 1 1 1 
1 1 1 1 1 1 1 1 1 
1 1 1 1 1 1 1 1 1 
1 1 1 1 1 1 1 1 1 
1 1 1 1 1 1 1 1 1 
1 1 1 1 1 1 1 1 1 
1 1 1 1 1 1 1 1 1 
1 1 1 1 1 1 1 1 1 
1 1 1 1 1 1 1 1 1 
1 1 1 1 1 1 1 1 1 
1 1 1 1 1 1 1 1 1 
1 1 1 1 1 1 1 1 1 
1 1 1 1 1 1 1 1 1 
1 1 1 1 1 1 1 1 1 
1 1 1 1 1 1 1 1 1 
1 1 1 1 1 1 1 1 1 
1 1 1 1 1 1 1 1 1 
1 1 1 1 1 1 1 1 1 
1 1 1 1 1 1 1 1 1 
1 1 1 1 1 1 1 1 1 
1 1 1 1 1 1 1 1 1 
1 1 1 1 1 1 1 1 1 
1 1 1 1 1 1 1 1 1 
1 1 1 1 1 1 1 1 1 
1 1 1 1 1 1 1 1 1 
1 1 1 1 1 1 1 1 1 
1 1 1 1 1 1 1 1 1 
1 1 1 1 1 1 1 1 1 
1 1 1 1 1 1 1 1 1 
1 1 1 1 1 1 1 1 1 
1 1 1 1 1 1 1 1 1 
1 1 1 1 1 1 1 1 1 
1 1 1 1 1 1 1 1 1 
1 1 1 1 1 1 1 1 1 
1 1 1 1 1 1 1 1 1 
1 1 1 1 1 1 1 1 1 
1 1 1 1 1 1 1 1 1 
1 1 1 1 1 1 1 1 1 
1 1 1 1 1 1 1 1 1 
1 1 1 1 1 1 1 1 1 
1 1 1 1 1 1 1 1 1 
1 1 1 1 1 1 1 1 1 
1 1 1 1 1 1 1 1 1 
1 1 1 1 1 1 1 1 1 
1 1 1 1 1 1 1 1 1 
1 1 1 1 1 1 1 1 1 
1 1 1 1 1 1 1 1 1 
1 1 1 1 1 1 1 1 1 
1 1 1 1 1 1 1 1 1 
1 1 1 1 1 1 1 1 1 
1 1 1 1 1 1 1 1 1 
1 1 1 1 1 1 1 1 1 
1 1 1 1 1 1 1 1 1 
1 1 1 1 1 1 1 1 1 
1 1 1 1 1 1 1 1 1 
1 1 1 1 1 1 1 1 1 
1 1 1 1 1 1 1 1 1 
1 1 1 1 1 1 1 1 1 
1 1 1 1 1 1 1 1 1 
1 1 1 1 1 1 1 1 1 
1 1 1 1 1 1 1 1 1 
1 1 1 1 1 1 1 1 1 
1 1 1 1 1 1 1 1 1 
1 1 1 1 1 1 1 1 1 
1 1 1 1 1 1 1 1 1 
1 1 1 1 1 1 1 1 1 
1 1 1 1 1 1 1 1 1 
1 1 1 1 1 1 1 1 1 
1 1 1 1 1 1 1 1 1 
1 1 1 1 1 1 1 1 1 
1 1 1 1 1 1 1 1 1 
1 1 1 1 1 1 1 1 1 
1 1 1 1 1 1 1 1 1 
1 1 1 1 1 1 1 1 1 
1 1 1 1 1 1 1 1 1 
1 1 1 1 1 1 1 1 1 
1 1 1 1 1 1 1 1 1 
1 1 1 1 1 1 1 1 1 
1 1 1 1 1 1 1 1 1 
1 1 1 1 1 1 1 1 1 
1 1 1 1 1 1 1 1 1 
1 1 1 1 1 1 1 1 1 
1 1 1 1 1 1 1 1 1 
1 1 1 1 1 1 1 1 1 
1 1 1 1 1 1 1 1 1 
1 1 1 1 1 1 1 1 1 
1 1 1 1 1 1 1 1 1 
1 1 1 1 1 1 1 1 1 
1 1 1 1 1 1 1 1 1 
1 1 1 1 1 1 1 1 1 
1 1 1 1 1 1 1 1 1 
1 1 1 1 1 1 1 1 1 
1 1 1 1 1 1 1 1 1 
1 1 1 1 1 1 1 1 1 
1 1 1 1 1 1 1 1 1 
1 1 1 1 1 1 1 1 1 
1 1 1 1 1 1 1 1 1 
1 1 1 1 1 1 1 1 1 
1 1 1 1 1 1 1 1 1 
1 1 1 1 1 1 1 1 1 
1 1 1 1 1 1 1 1 1 
1 1 1 1 1 1 1 1 1 
1 1 1 1 1 1 1 1 1 
1 1 1 1 1 1 1 1 1 
1 1 1 1 1 1 1 1 1 
1 1 1 1 1 1 1 1 1 
1 1 1 1 1 1 1 1 1 
1 1 1 1 1 1 1 1 1 
1 1 1 1 1 1 1 1 1 
1 1 1 1 1 1 1 1 1 
1 1 1 1 1 1 1 1 1 
1 1 1 1 1 1 1 1 1 
1 1 1 1 1 1 1 1 1 
1 1 1 1 1 1 1 1 1 
1 1 1 1 1 1 1 1 1 
1 1 1 1 1 1 1 1 1 
1 1 1 1 1 1 1 1 1 
1 1 1 1 1 1 1 1 1 
1 1 1 1 1 1 1 1 1 
1 1 1 1 1 1 1 1 1 
1 1 1 1 1 1 1 1 1 
1 1 1 1 1 1 1 1 1 
1 1 1 1 1 1 1 1 1 
1 1 1 1 1 1 1 1 1 
1 1 1 1 1 1 1 1 1 
1 1 1 1 1 1 1 1 1 
1 1 1 1 1 1 1 1 1 
1 1 1 1 1 1 1 1 1 
1 1 1 1 1 1 1 1 1 
1 1 1 1 1 1 1 1 1 
1 1 1 1 1 1 1 1 1 
1 1 1 1 1 1 1 1 1 
1 1 1 1 1 1 1 1 1 
1 1 1 1 1 1 1 1 1 
1 1 1 1 1 1 1 1 1 
1 1 1 1 1 1 1 1 1 
1 1 1 1 1 1 1 1 1 
1 1 1 1 1 1 1 1 1 
1 1 1 1 1 1 1 1 1 
1 1 1 1 1 1 1 1 1 
1 1 1 1 1 1 1 1 1 
1 1 1 1 1 1 1 1 1 
1 1 1 1 1 1 1 1 1 
1 1 1 1 1 1 1 1 1 
1 1 1 1 1 1 1 1 1 
1 1 1 1 1 1 1 1 1 
1 1 1 1 1 1 1 1 1 
1 1 1 1 1 1 1 1 1 
1 1 1 1 1 1 1 1 1 
1 1 1 1 1 1 1 1 1 
1 1 1 1 1 1 1 1 1 
1 1 1 1 1 1 1 1 1 
1 1 1 1 1 1 1 1 1 
1 1 1 1 1 1 1 1 1 
1 1 1 1 1 1 1 1 1 
1 1 1 1 1 1 1 1 1 
1 1 1 1 1 1 1 1 1 
1 1 1 1 1 1 1 1 1 
1 1 1 1 1 1 1 1 1 
1 1 1 1 1 1 1 1 1 
1 1 1 1 1 1 1 1 1 
1 1 1 1 1 1 1 1 1 
1 1 1 1 1 1 1 1 1 
1 1 1 1 1 1 1 1 1 
1 1 1 1 1 1 1 1 1 
1 1 1 1 1 1 1 1 1 
1 1 1 1 1 1 1 1 1 
1 1 1 1 1 1 1 1 1 
1 1 1 1 1 1 1 1 1 
1 1 1 1 1 1 1 1 1 
1 1 1 1 1 1 1 1 1 
1 1 1 1 1 1 1 1 1 
1 1 1 1 1 1 1 1 1 
1 1 1 1 1 1 1 1 1 
1 1 1 1 1 1 1 1 1 
1 1 1 1 1 1 1 1 1 
1 1 1 1 1 1 1 1 1 
1 1 1 1 1 1 1 1 1 
1 1 1 1 1 1 1 1 1 
1 1 1 1 1 1 1 1 1 
1 1 1 1 1 1 1 1 1 
1 1 1 1 1 1 1 1 1 
1 1 1 1 1 1 1 1 1 
1 1 1 1 1 1 1 1 1 
1 1 1 1 1 1 1 1 1 
1 1 1 1 1 1 1 1 1 
1 1 1 1 1 1 1 1 1 
1 1 1 1 1 1 1 1 1 
1 1 1 1 1 1 1 1 1 
1 1 1 1 1 1 1 1 1 
1 1 1 1 1 1 1 1 1 
1 1 1 1 1 1 1 1 1 
1 1 1 1 1 1 1 1 1 
1 1 1 1 1 1 1 1 1 
1 1 1 1 1 1 1 1 1 
1 1 1 1 1 1 1 1 1 
1 1 1 1 1 1 1 1 1 
1 1 1 1 1 1 1 1 1 
1 1 1 1 1 1 1 1 1 
1 1 1 1 1 1 1 1 1 
1 1 1 1 1 1 1 1 1 
1 1 1 1 1 1 1 1 1 
1 1 1 1 1 1 1 1 1 
1 1 1 1 1 1 1 1 1 
1 1 1 1 1 1 1 1 1 
1 1 1 1 1 1 1 1 1 
1 1 1 1 1 1 1 1 1 
1 1 1 1 1 1 1 1 1 
1 1 1 1 1 1 1 1 1 
1 1 1 1 1 1 1 1 1 
1 1 1 1 1 1 1 1 1 
1 1 1 1 1 1 1 1 1 
1 1 1 1 1 1 1 1 1 
1 1 1 1 1 1 1 1 1 
1 1 1 1 1 1 1 1 1 
1 1 1 1 1 1 1 1 1 
1 1 1 1 1 1 1 1 1 
1 1 1 1 1 1 1 1 1 
1 1 1 1 1 1 1 1 1 
1 1 1 1 1 1 1 1 1 
1 1 1 1 1 1 1 1 1 
1 1 1 1 1 1 1 1 1 
1 1 1 1 1 1 1 1 1 
1 1 1 1 1 1 1 1 1 
1 1 1 1 1 1 1 1 1 
1 1 1 1 1 1 1 1 1 
1 1 1 1 1 1 1 1 1 
1 1 1 1 1 1 1 1 1 
1 1 1 1 1 1 1 1 1 
1 1 1 1 1 1 1 1 1 
1 1 1 1 1 1 1 1 1 
1 1 1 1 1 1 1 1 1 
1 1 1 1 1 1 1 1 1 
1 1 1 1 1 1 1 1 1 
1 1 1 1 1 1 1 1 1 
1 1 1 1 1 1 1 1 1 
1 1 1 1 1 1 1 1 1 
1 1 1 1 1 1 1 1 1 
1 1 1 1 1 1 1 1 1 
1 1 1 1 1 1 1 1 1 
1 1 1 1 1 1 1 1 1 
1 1 1 1 1 1 1 1 1 
1 1 1 1 1 1 1 1 1 
1 1 1 1 1 1 1 1 1 
1 1 1 1 1 1 1 1 1 
1 1 1 1 1 1 1 1 1 
1 1 1 1 1 1 1 1 1 
1 1 1 1 1 1 1 1 1 
1 1 1 1 1 1 1 1 1 
1 1 1 1 1 1 1 1 1 
1 1 1 1 1 1 1 1 1 
1 1 1 1 1 1 1 1 1 
1 1 1 1 1 1 1 1 1 
1 1 1 1 1 1 1 1 1 
1 1 1 1 1 1 1 1 1 
1 1 1 1 1 1 1 1 1 
1 1 1 1 1 1 1 1 1 
1 1 1 1 1 1 1 1 1 
1 1 1 1 1 1 1 1 1 
1 1 1 1 1 1 1 1 1 
1 1 1 1 1 1 1 1 1 
1 1 1 1 1 1 1 1 1 
1 1 1 1 1 1 1 1 1 
1 1 1 1 1 1 1 1 1 
1 1 1 1 1 1 1 1 1 
1 1 1 1 1 1 1 1 1 
1 1 1 1 1 1 1 1 1 
1 1 1 1 1 1 1 1 1 
1 1 1 1 1 1 1 1 1 
1 1 1 1 1 1 1 1 1 
1 1 1 1 1 1 1 1 1 
1 1 1 1 1 1 1 1 1 
1 1 1 1 1 1 1 1 1 
1 1 1 1 1 1 1 1 1 
1 1 1 1 1 1 1 1 1 
1 1 1 1 1 1 1 1 1 
1 1 1 1 1 1 1 1 1 
1 1 1 1 1 1 1 1 1 
1 1 1 1 1 1 1 1 1 
1 1 1 1 1 1 1 1 1 
1 1 1 1 1 1 1 1 1 
1 1 1 1 1 1 1 1 1 
1 1 1 1 1 1 1 1 1 
1 1 1 1 1 1 1 1 1 
1 1 1 1 1 1 1 1 1 
1 1 1 1 1 1 1 1 1 
1 1 1 1 1 1 1 1 1 
1 1 1 1 1 1 1 1 1 
1 1 1 1 1 1 1 1 1 
1 1 1 1 1 1 1 1 1 
1 1 1 1 1 1 1 1 1 
1 1 1 1 1 1 1 1 1 
1 1 1 1 1 1 1 1 1 
1 1 1 1 1 1 1 1 1 
1 1 1 1 1 1 1 1 1 
1 1 1 1 1 1 1 1 1 
1 1 1 1 1 1 1 1 1 
1 1 1 1 1 1 1 1 1 
1 1 1 1 1 1 1 1 1 
1 1 1 1 1 1 1 1 1 
1 1 1 1 1 1 1 1 1 
1 1 1 1 1 1 1 1 1 
1 1 1 1 1 1 1 1 1 
1 1 1 1 1 1 1 1 1 
1 1 1 1 1 1 1 1 1 
1 1 1 1 1 1 1 1 1 
1 1 1 1 1 1 1 1 1 
1 1 1 1 1 1 1 1 1 
1 1 1 1 1 1 1 1 1 
1 1 1 1 1 1 1 1 1 
1 1 1 1 1 1 1 1 1 
1 1 1 1 1 1 1 1 1 
1 1 1 1 1 1 1 1 1 
1 1 1 1 1 1 1 1 1 
1 1 1 1 1 1 1 1 1 
1 1 1 1 1 1 1 1 1 
1 1 1 1 1 1 1 1 1 
1 1 1 1 1 1 1 1 1 
1 1 1 1 1 1 1 1 1 
1 1 1 1 1 1 1 1 1 
1 1 1 1 1 1 1 1 1 
1 1 1 1 1 1 1 1 1 
1 1 1 1 1 1 1 1 1 
1 1 1 1 1 1 1 1 1 
1 1 1 1 1 1 1 1 1 
1 1 1 1 1 1 1 1 1 
1 1 1 1 1 1 1 1 1 
1 1 1 1 1 1 1 1 1 
1 1 1 1 1 1 1 1 1 
1 1 1 1 1 1 1 1 1 
1 1 1 1 1 1 1 1 1 
1 1 1 1 1 1 1 1 1 
1 1 1 1 1 1 1 1 1 
1 1 1 1 1 1 1 1 1 
1 1 1 1 1 1 1 1 1 
1 1 1 1 1 1 1 1 1 
1 1 1 1 1 1 1 1 1 
1 1 1 1 1 1 1 1 1 
1 1 1 1 1 1 1 1 1 
1 1 1 1 1 1 1 1 1 
1 1 1 1 1 1 1 1 1 
1 1 1 1 1 1 1 1 1 
1 1 1 1 1 1 1 1 1 
1 1 1 1 1 1 1 1 1 
1 1 1 1 1 1 1 1 1 
1 1 1 1 1 1 1 1 1 
1 1 1 1 1 1 1 1 1 
1 1 1 1 1 1 1 1 1 
1 1 1 1 1 1 1 1 1 
1 1 1 1 1 1 1 1 1 
1 1 1 1 1 1 1 1 1 
1 1 1 1 1 1 1 1 1 
1 1 1 1 1 1 1 1 1 
1 1 1 1 1 1 1 1 1 
1 1 1 1 1 1 1 1 1 
1 1 1 1 1 1 1 1 1 
1 1 1 1 1 1 1 1 1 
1 1 1 1 1 1 1 1 1 
1 1 1 1 1 1 1 1 1 
1 1 1 1 1 1 1 1 1 
1 1 1 1 1 1 1 1 1 
1 1 1 1 1 1 1 1 1 
1 1 1 1 1 1 1 1 1 
1 1 1 1 1 1 1 1 1 
1 1 1 1 1 1 1 1 1 
1 1 1 1 1 1 1 1 1 
1 1 1 1 1 1 1 1 1 
1 1 1 1 1 1 1 1 1 
1 1 1 1 1 1 1 1 1 
1 1 1 1 1 1 1 1 1 
1 1 1 1 1 1 1 1 1 
1 1 1 1 1 1 1 1 1 
1 1 1 1 1 1 1 1 1 
1 1 1 1 1 1 1 1 1 
1 1 1 1 1 1 1 1 1 
1 1 1 1 1 1 1 1 1 
1 1 1 1 1 1 1 1 1 
1 1 1 1 1 1 1 1 1 
1 1 1 1 1 1 1 1 1 
1 1 1 1 1 1 1 1 1 
1 1 1 1 1 1 1 1 1 
1 1 1 1 1 1 1 1 1 
1 1 1 1 1 1 1 1 1 
1 1 1 1 1 1 1 1 1 
1 1 1 1 1 1 1 1 1 
1 1 1 1 1 1 1 1 1 
1 1 1 1 1 1 1 1 1 
1 1 1 1 1 1 1 1 1 
1 1 1 1 1 1 1 1 1 
1 1 1 1 1 1 1 1 1 
1 1 1 1 1 1 1 1 1 
1 1 1 1 1 1 1 1 1 
1 1 1 1 1 1 1 1 1 
1 1 1 1 1 1 1 1 1 
1 1 1 1 1 1 1 1 1 
1 1 1 1 1 1 1 1 1 
1 1 1 1 1 1 1 1 1 
1 1 1 1 1 1 1 1 1 
1 1 1 1 1 1 1 1 1 
1 1 1 1 1 1 1 1 1 
1 1 1 1 1 1 1 1 1 
1 1 1 1 1 1 1 1 1 
1 1 1 1 1 1 1 1 1 
1 1 1 1 1 1 1 1 1 
1 1 1 1 1 1 1 1 1 
1 1 1 1 1 1 1 1 1 
1 1 1 1 1 1 1 1 1 
1 1 1 1 1 1 1 1 1 
1 1 1 1 1 1 1 1 1 
1 1 1 1 1 1 1 1 1 
1 1 1 1 1 1 1 1 1 
1 1 1 1 1 1 1 1 1 
1 1 1 1 1 1 1 1 1 
1 1 1 1 1 1 1 1 1 
1 1 1 1 1 1 1 1 1 
1 1 1 1 1 1 1 1 1 
1 1 1 1 1 1 1 1 1 
1 1 1 1 1 1 1 1 1 
1 1 1 1 1 1 1 1 1 
1 1 1 1 1 1 1 1 1 
1 1 1 1 1 1 1 1 1 
1 1 1 1 1 1 1 1 1 
1 1 1 1 1 1 1 1 1 
1 1 1 1 1 1 1 1 1 
1 1 1 1 1 1 1 1 1 
1 1 1 1 1 1 1 1 1 
1 1 1 1 1 1 1 1 1 
1 1 1 1 1 1 1 1 1 
1 1 1 1 1 1 1 1 1 
1 1 1 1 1 1 1 1 1 
1 1 1 1 1 1 1 1 1 
1 1 1 1 1 1 1 1 1 
1 1 1 1 1 1 1 1 1 
1 1 1 1 1 1 1 1 1 
1 1 1 1 1 1 1 1 1 
1 1 1 1 1 1 1 1 1 
1 1 1 1 1 1 1 1 1 
1 1 1 1 1 1 1 1 1 
1 1 1 1 1 1 1 1 1 
1 1 1 1 1 1 1 1 
NORMALS normals float
-0.015869 -0.015869 -0.999748 -0.015869 -0.999748 -0.015869 -0.707062 -0.707062 -0.0112232 
0 -0.015871 -0.999874 0 -0.999874 -0.015871 0 -0.015871 -0.999874 
0 -0.999874 -0.015871 0.015869 -0.015869 -0.999748 0.015869 -0.999748 -0.015869 
0.999748 -0.015869 -0.015869 -0.015869 -0.015869 -0.999748 -0.707062 -0.707062 -0.0112232 
-0.707062 -0.707062 -0.0112232 0 0 -1 0 0 -1 
0 0 -1 0.015871 0 -0.999874 0.999874 0 -0.015871 
-0.015869 -0.015869 -0.999748 -0.0112232 -0.707062 -0.707062 -0.999748 -0.015869 -0.015869 
0 -0.015871 -0.999874 0 -0.707107 -0.707107 0 -0.015871 -0.999874 
0 -0.999874 -0.015871 0 -0.015871 -0.999874 0 -0.999874 -0.015871 
0 -0.015871 -0.999874 0 -0.999874 -0.015871 0 -0.015871 -0.999874 
0 -0.999874 -0.015871 0 -0.015871 -0.999874 0 -0.999874 -0.015871 
0 -0.015871 -0.999874 0 -0.999874 -0.015871 0 -0.015871 -0.999874 
0 -0.999874 -0.015871 0 -0.015871 -0.999874 0 -0.999874 -0.015871 
0 -0.015871 -0.999874 -0.701383 -0.712695 -0.0113126 0 0 -1 
0 0 -1 0 0 -1 0 0 -1 
0.015869 0.015869 -0.999748 0.999748 0.015869 -0.015869 -0.015869 0.015869 -0.999748 
-0.999748 0.015869 -0.015869 0 0.015871 -0.999874 0 0.015871 -0.999874 
0 0.015871 -0.999874 0 0.015871 -0.999874 0 0.015871 -0.999874 
0 0.015871 -0.999874 0 0.015871 -0.999874 0 0 -1 
0 0 -1 0 0 -1 0 0 -1 
0 0 -1 0 0 -1 0.015869 0.015869 -0.999748 
0.57735 0.57735 -0.57735 0.57735 0.57735 -0.57735 -0.015869 0.999748 -0.015869 
0 0.999874 -0.015871 0 0.999874 -0.015871 0 0.999874 -0.015871 
0 0.999874 -0.015871 0 0.999874 -0.015871 0 0.999874 -0.015871 
-0.571192 0.580405 -0.580405 -0.580405 0.571192 -0.580405 -0.015871 0 -0.999874 
0 0 -1 0 0 -1 0 0 -1 
0 0 -1 0.015869 0.015869 -0.999748 0.707062 0.707062 -0.0112232 
0.707062 0.707062 -0.0112232 -0.015869 0.015869 -0.999748 -0.999748 0.015869 -0.015869 
0 0.015871 -0.999874 0 0.015871 -0.999874 0 0.015871 -0.999874 
0.015869 0.015869 -0.999748 0.707062 0.707062 -0.0112232 0.707062 0.707062 -0.0112232 
-0.015869 0.999748 -0.015869 0 0.999874 -0.015871 0 0.999874 -0.015871 
0 0.999874 -0.015871 0.015869 0.999748 -0.015869 -0.015871 -0.999874 0 
-0.707107 -0.707107 0 0 -1 0 0 -1 0 
0.015871 -0.999874 0 0.712695 -0.0113126 -0.701383 -0.0113126 -0.712695 -0.701383 
-0.015871 -0.999874 0 -0.999874 -0.015871 0 0.0112232 -0.707062 -0.707062 
0.015869 -0.999748 -0.015869 0.707062 -0.707062 -0.0112232 -0.707107 -0.707107 0 
-0.707107 -0.707107 0 0.712741 0 -0.701427 -1 0 0 
0.701427 -0.712741 0 0 -1 0 0 -1 0 
0 -1 0 0 -1 0 0 -1 0 
0 -1 0 0 -1 0 -0.701427 -0.712741 0 
0.712741 0 -0.701427 -0.999874 0.015871 0 0.57735 0.57735 -0.57735 
0.707062 0.0112232 -0.707062 -0.0113126 0.712695 -0.701383 0 0.712741 -0.701427 
0 1 0 0 1 0 0 0.712741 -0.701427 
0 0.712741 -0.701427 -0.574246 0.583508 -0.574246 -0.57735 0.57735 -0.57735 
-0.57735 0.57735 -0.57735 0.580405 0.580405 -0.571192 0.574246 0.583508 -0.574246 
0.0112232 0.707062 -0.707062 -0.57735 0.57735 -0.57735 -0.580405 0.580405 -0.571192 
0.580405 0.580405 -0.571192 0.580405 0.580405 -0.571192 -0.015871 0.999874 0 
0 1 0 0 1 0 0 1 0 
0.015871 0.999874 0 -0.015871 -0.999874 0 -0.580405 -0.580405 -0.571192 
0 -1 0 0 -1 0 0 -1 0 
0.701383 -0.0113126 -0.712695 0 -0.999874 -0.015871 0.015869 -0.015869 -0.999748 
0.015869 -0.999748 -0.015869 0.999748 -0.015869 -0.015869 -0.707107 -0.707107 0 
-0.701427 -0.712741 0 0 -0.712741 -0.701427 0.574246 -0.583508 -0.574246 
-0.580405 -0.580405 -0.571192 -0.580405 -0.580405 -0.571192 0.701427 0 -0.712741 
0.015871 0 -0.999874 0.999874 0 -0.015871 -0.707107 -0.707107 0 
-0.999874 -0.015871 0 0.574246 -0.583508 -0.574246 0 -0.712741 -0.701427 
0 -0.712741 -0.701427 0 -0.712741 -0.701427 0 -0.712741 -0.701427 
0 -0.712741 -0.701427 0 -0.712741 -0.701427 0 -0.712741 -0.701427 
-0.574246 -0.583508 -0.574246 0.701427 0 -0.712741 0.015869 0.015869 -0.999748 
0.999748 0.015869 -0.015869 -1 0 0 0.707062 0.0112232 -0.707062 
0.707062 0.707062 -0.0112232 0.707062 0.707062 -0.0112232 -0.0113126 0.701383 -0.712695 
-0.999874 0 -0.015871 0.0112232 0.707062 -0.707062 0.707062 0.707062 -0.0112232 
0.701427 0.712741 0 -0.701427 0.712741 0 -0.0113126 0.701383 -0.712695 
-0.712695 0.701383 -0.0113126 0 0.701427 -0.712741 -0.574246 0.574246 -0.583508 
0.574246 0.574246 -0.583508 0.0112232 0.707062 -0.707062 0.707062 0.707062 -0.0112232 
0.707062 0.707062 -0.0112232 0 0.015871 -0.999874 -0.99974 0.0161248 -0.0161248 
0.701383 0.712695 -0.0113126 0.707062 0.707062 -0.0112232 -0.015869 0.015869 -0.999748 
-0.999748 0.015869 -0.015869 0 0.015871 -0.999874 0 0.015871 -0.999874 
-0.571192 0.580405 -0.580405 0.571192 0.580405 -0.580405 0.015869 0.015869 -0.999748 
0.707062 0.707062 -0.0112232 0.707062 0.707062 -0.0112232 0 0.999874 -0.015871 
-0.015869 0.999748 -0.015869 0 0.999874 -0.015871 0 0.999874 -0.015871 
0 0.999874 -0.015871 0 1 0 0 1 0 
0 1 0 0 1 0 0 1 0 
0 0.999874 -0.015871 0.015869 0.999748 -0.015869 0 0 -1 
0 -0.701427 -0.712741 -0.99987 0 -0.0161269 0.701427 0 -0.712741 
0 0.701427 -0.712741 0 -0.015871 -0.999874 0 -0.707107 -0.707107 
-0.701383 -0.0113126 -0.712695 0.99974 -0.0161248 -0.0161248 0 -0.701427 -0.712741 
-0.574246 -0.574246 -0.583508 0.574246 -0.574246 -0.583508 -0.57735 -0.57735 -0.57735 
-0.015869 -0.999748 -0.015869 -0.57735 -0.57735 -0.57735 0 -1 0 
0 -1 0 0 -1 0 0 -1 0 
0 -1 0 0.015871 -0.999874 0 0.999874 -0.015871 0 
-0.707062 -0.707062 -0.0112232 -0.57735 -0.57735 -0.57735 -0.999748 -0.015869 -0.015869 
0.571192 -0.580405 -0.580405 0.571192 -0.580405 -0.580405 0 -0.707107 -0.707107 
0 -0.707107 -0.707107 0 -0.707107 -0.707107 0 -0.707107 -0.707107 
0 -0.707107 -0.707107 0 -0.707107 -0.707107 0 -0.707107 -0.707107 
0 -0.707107 -0.707107 0 -0.707107 -0.707107 0 -0.707107 -0.707107 
0 -0.707107 -0.707107 0 -0.707107 -0.707107 0 -0.707107 -0.707107 
0 -0.707107 -0.707107 -0.571192 -0.580405 -0.580405 -0.571192 -0.580405 -0.580405 
1 0 0 -1 0 0 0.999874 0.015871 0 
-1 0 0 0.707107 0.707107 0 0.707107 0.707107 0 
-1 0 0 0.707107 0.707107 0 0.701427 0.712741 0 
-0.701427 0.712741 0 -0.712741 0.701427 0 0.707107 0.707107 0 
0.707107 0.707107 0 -0.99987 0.0161269 0 0.701427 0.712741 0 
0.707107 0.707107 0 -0.999874 0.015871 0 0.707107 0.707107 0 
0.707107 0.707107 0 0 1 0 -0.015871 0.999874 0 
0 1 0 0 1 0 0 1 0 
0 1 0 0 1 0 0 1 0 
0 1 0 0 1 0 0 1 0 
0.015871 0.999874 0 -0.0112232 -0.707062 -0.707062 -0.0112232 -0.707062 -0.707062 
-0.999748 -0.015869 -0.015869 0.015869 -0.015869 -0.999748 0.015869 -0.999748 -0.015869 
0.999748 -0.015869 -0.015869 -1 0 0 0.707107 0 -0.707107 
0.999874 0 -0.015871 -0.0113126 0.701383 -0.712695 -0.999874 0 -0.015871 
0.0113126 -0.701383 -0.712695 0.999874 0 -0.015871 -0.707107 0 -0.707107 
-0.999874 0 -0.015871 0.712741 -0.701427 0 -0.580405 -0.571192 -0.580405 
-0.999874 0 -0.015871 0.701383 -0.712695 -0.0113126 0.571192 -0.580405 -0.580405 
0 -0.707107 -0.707107 0 -0.707107 -0.707107 0 -0.707107 -0.707107 
0 -0.707107 -0.707107 0 -0.707107 -0.707107 0 -0.707107 -0.707107 
0 -0.707107 -0.707107 0 -0.707107 -0.707107 0 -0.707107 -0.707107 
0 -0.707107 -0.707107 0 -0.707107 -0.707107 0 -0.707107 -0.707107 
0 -0.707107 -0.707107 0 -0.707107 -0.707107 -0.571192 -0.580405 -0.580405 
0 -0.707107 -0.707107 0 -0.712741 -0.701427 0 -0.712741 -0.701427 
0 -0.712741 -0.701427 0 -0.712741 -0.701427 0 -0.712741 -0.701427 
0 -0.712741 -0.701427 0.0113126 -0.712695 -0.701383 0.999874 -0.015871 0 
-1 0 0 0.999874 0 0.015871 -1 0 0 
0.999748 0.015869 0.015869 -1 0 0 0.707062 0.707062 0.0112232 
0.707062 0.707062 0.0112232 -1 0 0 0.707107 0.707107 0 
0.701427 0.712741 0 -0.701427 0.712741 0 -0.712741 0.701427 0 
0.707107 0.707107 0 0.707062 0.707062 0.0112232 -0.99987 0.0161269 0 
0.701427 0.712741 0 0.707107 0.707107 0 -0.999874 0.015871 0 
0.707107 0.707107 0 0.707107 0.707107 0 0 1 0 
-0.015871 0.999874 0 0 1 0 0 1 0 
0 1 0 0 1 0 0 1 0 
0 1 0 0 1 0 0 1 0 
0 1 0 0.015871 0.999874 0 0 -0.707107 -0.707107 
0 -0.707107 -0.707107 -0.99974 -0.0161248 -0.0161248 0.571192 -0.580405 -0.580405 
-1 0 0 0.580405 -0.580405 -0.571192 0.999874 -0.015871 0 
-1 0 0 1 0 0 -1 0 0 
1 0 0 -1 0 0 0.0161269 -0.99987 0 
-0.0112232 -0.707062 -0.707062 -0.015869 -0.999748 -0.015869 -0.015869 -0.999748 -0.015869 
0 -0.707107 -0.707107 0 -0.707107 -0.707107 0 -0.707107 -0.707107 
0 -0.707107 -0.707107 0 -0.707107 -0.707107 0 -0.707107 -0.707107 
0 -0.707107 -0.707107 0 -0.707107 -0.707107 0 -0.707107 -0.707107 
0 -0.707107 -0.707107 0 -0.707107 -0.707107 0 -0.707107 -0.707107 
0 -0.707107 -0.707107 0 -0.707107 -0.707107 0 -0.707107 -0.707107 
0 -0.707107 -0.707107 0 -0.707107 -0.707107 0 -0.707107 -0.707107 
0 -0.707107 -0.707107 0 -0.707107 -0.707107 0 -0.707107 -0.707107 
0 -0.707107 -0.707107 0 -0.707107 -0.707107 0 -0.707107 -0.707107 
0 -0.707107 -0.707107 0 -0.707107 -0.707107 0.0112232 -0.707062 -0.707062 
0.0112232 -0.707062 -0.707062 0.999748 -0.015869 -0.015869 -1 0 0 
0 -1 0 0.999874 0.015871 0 -1 0 0 
0.580405 0.571192 0.580405 0.583508 0.574246 0.574246 0.580405 0.580405 0.571192 
-1 0 0 0.707062 0.0112232 0.707062 0.707062 0.0112232 0.707062 
-1 0 0 0.57735 0.57735 0.57735 0.583508 0.574246 0.574246 
0.57735 0.57735 0.57735 -1 0 0 0.707107 0.707107 0 
0.701427 0.712741 0 -0.701427 0.712741 0 -0.712741 0.701427 0 
0.999874 0.015871 0 -0.99987 0.0161269 0 0.701427 0.712741 0 
0.707107 0.707107 0 -0.999874 0.015871 0 0.707107 0.707107 0 
0.707107 0.707107 0 0 1 0 -0.015871 0.999874 0 
0 1 0 0 1 0 0 1 0 
0 1 0 0 1 0 0 1 0 
0 1 0 0 1 0 0 1 0 
0.015871 0.999874 0 -0.015869 -0.015869 -0.999748 -0.015869 -0.999748 -0.015869 
-0.999748 -0.015869 -0.015869 0.015869 -0.015869 -0.999748 0.015869 -0.999748 -0.015869 
0.999748 -0.015869 -0.015869 -0.015871 0 -0.999874 -0.999874 0 -0.015871 
0.015871 0 -0.999874 0.999874 0 -0.015871 -0.0113126 -0.701383 -0.712695 
-0.999874 0 -0.015871 0.015871 0 -0.999874 0.999874 0 -0.015871 
-1 0 0 0.580405 -0.571192 -0.580405 0.999874 0 -0.015871 
-1 0 0 1 0 0 -1 0 0 
1 0 0 -1 0 0 1 0 0 
-0.0112232 -0.707062 -0.707062 -0.015869 -0.999748 -0.015869 -0.707062 -0.707062 -0.0112232 