# vtk DataFile Version 3.0
vtk output
ASCII
DATASET POLYDATA
POINTS 6722 float
143 103 88.0156 143 102.016 89 142.016 103 89 
144 103 88.0156 144 102.016 89 144.984 103 89 
143 103.984 89 143.016 104 89 144 104 88.0156 
144.984 104 89 144 104.984 89 148 105 88.0156 
148 104.016 89 147.016 105 89 149 105 88.0156 
149 104.016 89 150 105 88.0156 150 104.016 89 
151 105 88.0156 151 104.016 89 152 105 88.0156 
152 104.016 89 153 105 88.0156 153 104.016 89 
154 105 88.0156 154 104.016 89 155 105 88.0156 
155 104.016 89 156 105 88.0156 156 104.016 89 
157 105 88.0156 157 104.016 89 158 105 88.0156 
158 104.016 89 159 105 88.0156 159 104.016 89 
159.984 105 89 148 105.984 89 149 105.984 89 
150 105.984 89 151 105.984 89 152 105.984 89 
153 105.984 89 154 105.984 89 155 105.984 89 
156 105.984 89 157 105.984 89 158 105.984 89 
159 105.984 89 143 98 89.0156 143 97.0156 90 
142.016 98 90 144 98 89.0156 144 97.0156 90 
145 98 89.0156 145 97.0156 90 146 98 89.0156 
146 97.0156 90 147 98 89.0156 147 97.0156 90 
148 98 89.0156 148 97.0156 90 148.984 98 90 
143 99 89.0156 142.016 99 90 144 99 89.0156 
145 99 89.0156 146 99 89.0156 147 99 89.0156 
148 99 89.0156 148.984 99 90 143 100 89.0156 
142.016 100 90 144 100 89.0156 145 100 89.0156 
146 100 89.0156 147 100 89.0156 148 100 89.0156 
149 99.0156 90 149 100 89.0156 150 100 89.0156 
150 99.0156 90 151 100 89.0156 151 99.0156 90 
152 100 89.0156 152 99.0156 90 153 100 89.0156 
153 99.0156 90 154 100 89.0156 154 99.0156 90 
155 100 89.0156 155 99.0156 90 156 100 89.0156 
156 99.0156 90 157 100 89.0156 157 99.0156 90 
158 100 89.0156 158 99.0156 90 158.984 100 90 
143 101 89.0156 142.016 101 90 144 101 89.0156 
145 101 89.0156 146 101 89.0156 147 101 89.0156 
148 101 89.0156 149 101 89.0156 150 101 89.0156 
151 101 89.0156 152 101 89.0156 153 101 89.0156 
154 101 89.0156 155 101 89.0156 156 101 89.0156 
157 101 89.0156 158 101 89.0156 158.984 101 90 
143 102 89.0156 142.016 102 90 144 102 89.0156 
145 102 89.0156 146 102 89.0156 147 102 89.0156 
148 102 89.0156 149 102 89.0156 150 102 89.0156 
151 102 89.0156 152 102 89.0156 153 102 89.0156 
154 102 89.0156 155 102 89.0156 156 102 89.0156 
157 102 89.0156 158 102 89.0156 159 101.016 90 
159 102 89.0156 160 102 89.0156 160 101.016 90 
160.984 102 90 142.016 103 90 145 103 89.0156 
146 103 89.0156 147 103 89.0156 148 103 89.0156 
149 103 89.0156 150 103 89.0156 151 103 89.0156 
152 103 89.0156 153 103 89.0156 154 103 89.0156 
155 103 89.0156 156 103 89.0156 157 103 89.0156 
158 103 89.0156 159 103 89.0156 160 103 89.0156 
160.984 103 90 143 104 89.0156 142.016 104 90 
145 104 89.0156 146 104 89.0156 147 104 89.0156 
148 104 89.0156 149 104 89.0156 150 104 89.0156 
151 104 89.0156 152 104 89.0156 153 104 89.0156 
154 104 89.0156 155 104 89.0156 156 104 89.0156 
157 104 89.0156 158 104 89.0156 159 104 89.0156 
160 104 89.0156 160.984 104 90 143 105 89.0156 
142.016 105 90 144 105 89.0156 145 105 89.0156 
146 105 89.0156 147 105 89.0156 160 105 89.0156 
160.984 105 90 143 105.984 90 144 105.984 90 
145 105.984 90 146 105.984 90 147 105.984 90 
148 105.984 90 149 106 89.0156 148.016 106 90 
150 106 89.0156 151 106 89.0156 152 106 89.0156 
153 106 89.0156 154 106 89.0156 155 106 89.0156 
156 106 89.0156 157 106 89.0156 158 106 89.0156 
159 106 89.0156 160 106 89.0156 160.984 106 90 
149 107 89.0156 148.016 107 90 150 107 89.0156 
151 107 89.0156 152 107 89.0156 153 107 89.0156 
154 107 89.0156 155 107 89.0156 156 107 89.0156 
157 107 89.0156 158 107 89.0156 159 107 89.0156 
160 107 89.0156 160.984 107 90 149 107.984 90 
150 107.984 90 150.016 108 90 151 108 89.0156 
152 108 89.0156 153 108 89.0156 154 108 89.0156 
155 108 89.0156 156 108 89.0156 157 108 89.0156 
158 108 89.0156 159 108 89.0156 160 108 89.0156 
160.984 108 90 151 109 89.0156 150.016 109 90 
152 109 89.0156 153 109 89.0156 154 109 89.0156 
155 109 89.0156 156 109 89.0156 157 109 89.0156 
158 109 89.0156 159 109 89.0156 159.984 109 90 
160 108.984 90 151 109.984 90 152 109.984 90 
153 109.984 90 154 109.984 90 155 109.984 90 
156 109.984 90 157 109.984 90 158 109.984 90 
159 109.984 90 143 97.0156 91 142.016 98 91 
144 97.0156 91 145 97.0156 91 146 97.0156 91 
147 97.0156 91 148 97.0156 91 148.984 98 91 
142.016 99 91 148.984 99 91 142.016 100 91 
149 99.0156 91 150 99.0156 91 151 99.0156 91 
152 99.0156 91 153 99.0156 91 154 99.0156 91 
155 99.0156 91 156 99.0156 91 157 99.0156 91 
158 99.0156 91 158.984 100 91 142.016 101 91 
159 100.016 91 159 101 90.0156 159.984 101 91 
142.016 102 91 160 101.016 91 160.984 102 91 
142.016 103 91 160.984 103 91 142.016 104 91 
160.984 104 91 143 104.984 91 143 105 90.9844 
144 104.984 91 144 105 90.9844 145 104.984 91 
145 105 90.9844 145.016 105 91 160.984 105 91 
146 105.984 91 147 105.984 91 148 106 90.0156 
147.016 106 91 160.984 106 91 148 107 90.0156 
147.016 107 91 160.984 107 91 148 107.984 91 
149 107.984 91 150 108 90.0156 149.016 108 91 
160.984 108 91 150 108.984 91 150.016 109 91 
159.984 109 91 160 108.984 91 151 109.984 91 
152 109.984 91 153 109.984 91 154 109.984 91 
155 109.984 91 156 109.984 91 157 109.984 91 
158 109.984 91 159 109.984 91 143 98 91.9844 
144 98 91.9844 145 98 91.9844 146 98 91.9844 
146.016 98 92 147 97.0156 92 148 97.0156 92 
148.984 98 92 143 99 91.9844 144 99 91.9844 
145 99 91.9844 146 99 91.9844 146.016 99 92 
148.984 99 92 143 100 91.9844 144 100 91.9844 
145 100 91.9844 146 100 91.9844 146.016 100 92 
149 99.0156 92 150 99.0156 92 151 99.0156 92 
152 99.0156 92 153 99.0156 92 154 99.0156 92 
155 99.0156 92 156 99.0156 92 157 99.0156 92 
158 99.0156 92 159 100 91.0156 159 99.0156 92 
160 100 91.0156 160 99.0156 92 160.984 100 92 
143 101 91.9844 144 101 91.9844 145 101 91.9844 
146 101 91.9844 146.016 101 92 160 101 91.0156 
160.984 101 92 143 102 91.9844 144 102 91.9844 
145 102 91.9844 146 102 91.9844 146.016 102 92 
160.984 102 92 143 103 91.9844 144 103 91.9844 
145 103 91.9844 146 103 91.9844 146.016 103 92 
160.984 103 92 143 104 91.9844 144 104 91.9844 
145 104 91.9844 146 104 91.9844 146.016 104 92 
160.984 104 92 146 105 91.9844 146.016 105 92 
160.984 105 92 146.016 106 92 147 106 91.0156 
160.984 106 92 147 107 91.0156 146.016 107 92 
160.984 107 92 147 108 91.0156 146.016 108 92 
148 108 91.0156 149 108 91.0156 160.984 108 92 
147 109 91.0156 146.016 109 92 148 109 91.0156 
149 109 91.0156 150 109 91.0156 159.984 109 92 
160 108.984 92 147 109.984 92 148 109.984 92 
149 109.984 92 150 109.984 92 151 109.984 92 
152 109.984 92 153 109.984 92 154 109.984 92 
155 109.984 92 156 109.984 92 157 109.984 92 
158 109.984 92 159 109.984 92 137 83 92.0156 
137 82.0156 93 136.016 83 93 137.984 83 93 
137 83.9844 93 147 97.0156 93 146.016 98 93 
148 97.0156 93 148.984 98 93 146.016 99 93 
149 98.0156 93 149 99 92.0156 150 99 92.0156 
150 98.0156 93 151 99 92.0156 151 98.0156 93 
152 99 92.0156 152 98.0156 93 153 99 92.0156 
153 98.0156 93 154 99 92.0156 154 98.0156 93 
154.984 99 93 158 99 92.0156 158 98.0156 93 
157.016 99 93 159 99 92.0156 159 98.0156 93 
159.984 99 93 146.016 100 93 155 99.0156 93 
156 99.0156 93 157 99.0156 93 160 99.0156 93 
160.984 100 93 146.016 101 93 160.984 101 93 
146.016 102 93 160.984 102 93 146.016 103 93 
160.984 103 93 146.016 104 93 160.984 104 93 
146.016 105 93 160.984 105 93 146.016 106 93 
160.984 106 93 146.016 107 93 160.984 107 93 
146.016 108 93 160.984 108 93 146.016 109 93 
159.984 109 93 160 108.984 93 147 109.984 93 
148 110 92.0156 147.016 110 93 148.984 110 93 
149 109.984 93 150 109.984 93 151 109.984 93 
152 109.984 93 153 109.984 93 154 109.984 93 
155 109.984 93 156 109.984 93 157 109.984 93 
158 109.984 93 159 109.984 93 148 110.984 93 
137 82 93.0156 137 81.0156 94 136.016 82 94 
138 82 93.0156 138 81.0156 94 138.984 82 94 
136.016 83 94 138 83 93.0156 138.984 83 94 
137 84 93.0156 136.016 84 94 138 84 93.0156 
138.984 84 94 137 85 93.0156 136.016 85 94 
138 85 93.0156 138.984 85 94 137 86 93.0156 
136.016 86 94 138 86 93.0156 138.984 86 94 
136 87 93.0156 136 86.0156 94 135.016 87 94 
137 87 93.0156 137.984 87 94 138 86.9844 94 
133 88 93.0156 133 87.0156 94 132.016 88 94 
134 88 93.0156 134 87.0156 94 135 88 93.0156 
135 87.0156 94 136 88 93.0156 136.984 88 94 
137 87.9844 94 133 89 93.0156 132.016 89 94 
134 89 93.0156 135 89 93.0156 136 89 93.0156 
136.984 89 94 133 90 93.0156 132.016 90 94 
134 90 93.0156 135 90 93.0156 136 90 93.0156 
136.984 90 94 133 91 93.0156 132.016 91 94 
134 91 93.0156 135 91 93.0156 135.984 91 94 
136 90.9844 94 133 91.9844 94 134 91.9844 94 
135 91.9844 94 159 96 93.0156 159 95.0156 94 
158.016 96 94 160 96 93.0156 160 95.0156 94 
160.984 96 94 159 97 93.0156 158.016 97 94 
160 97 93.0156 160.984 97 94 147 97.0156 94 
146.016 98 94 148 97.0156 94 149 98 93.0156 
149 97.0156 94 150 98 93.0156 150 97.0156 94 
151 98 93.0156 151 97.0156 94 152 98 93.0156 
152 97.0156 94 153 98 93.0156 153 97.0156 94 
154 98 93.0156 154 97.0156 94 154.984 98 94 
159 98 93.0156 158.016 98 94 160 98 93.0156 
160.984 98 94 146.016 99 94 154.984 99 94 
158 98.0156 94 157.016 99 94 160 99 93.0156 
160.984 99 94 146.016 100 94 155 99.0156 94 
156 99.0156 94 157 99.0156 94 160.984 100 94 
146.016 101 94 160.984 101 94 146.016 102 94 
160.984 102 94 146.016 103 94 160.984 103 94 
146.016 104 94 160.984 104 94 146.016 105 94 
160.984 105 94 146.016 106 94 160.984 106 94 
146.016 107 94 160.984 107 94 146.016 108 94 
160.984 108 94 146.016 109 94 159.984 109 94 
160 108.984 94 147 110 93.0156 146.016 110 94 
149 110 93.0156 150 110 93.0156 150.984 110 94 
151 109.984 94 152 109.984 94 153 109.984 94 
154 109.984 94 155 109.984 94 156 109.984 94 
157 109.984 94 158 109.984 94 159 109.984 94 
147 111 93.0156 146.016 111 94 148 111 93.0156 
149 111 93.0156 149.984 111 94 150 110.984 94 
147 111.984 94 148 111.984 94 149 111.984 94 
138 81 94.0156 138 80.0156 95 137.016 81 95 
138.984 81 95 137 81.0156 95 136.016 82 95 
138.984 82 95 136.016 83 95 138.984 83 95 
136.016 84 95 138.984 84 95 136.016 85 95 
[...]
POINT_DATA 6722
SCALARS scalars float
LOOKUP_TABLE default
1 1 1 1 1 1 1 1 1 
1 1 1 1 1 1 1 1 1 
1 1 1 1 1 1 1 1 1 
1 1 1 1 1 1 1 1 1 
1 1 1 1 1 1 1 1 1 
1 1 1 1 1 1 1 1 1 
1 1 1 1 1 1 1 1 1 
1 1 1 1 1 1 1 1 1 
1 1 1 1 1 1 1 1 1 
1 1 1 1 1 1 1 1 1 
1 1 1 1 1 1 1 1 1 
1 1 1 1 1 1 1 1 1 
1 1 1 1 1 1 1 1 1 
1 1 1 1 1 1 1 1 1 
1 1 1 1 1 1 1 1 1 
1 1 1 1 1 1 1 1 1 
1 1 1 1 1 1 1 1 1 
1 1 1 1 1 1 1 1 1 
1 1 1 1 1 1 1 1 1 
1 1 1 1 1 1 1 1 1 
1 1 1 1 1 1 1 1 1 
1 1 1 1 1 1 1 1 1 
1 1 1 1 1 1 1 1 1 
1 1 1 1 1 1 1 1 1 
1 1 1 1 1 1 1 1 1 
1 1 1 1 1 1 1 1 1 
1 1 1 1 1 1 1 1 1 
1 1 1 1 1 1 1 1 1 
1 1 1 1 1 1 1 1 1 
1 1 1 1 1 1 1 1 1 
1 1 1 1 1 1 1 1 1 
1 1 1 1 1 1 1 1 1 
1 1 1 1 1 1 1 1 1 
1 1 1 1 1 1 1 1 1 
1 1 1 1 1 1 1 1 1 
1 1 1 1 1 1 1 1 1 
1 1 1 1 1 1 1 1 1 
1 1 1 1 1 1 1 1 1 
1 1 1 1 1 1 1 1 1 
1 1 1 1 1 1 1 1 1 
1 1 1 1 1 1 1 1 1 
1 1 1 1 1 1 1 1 1 
1 1 1 1 1 1 1 1 1 
1 1 1 1 1 1 1 1 1 
1 1 1 1 1 1 1 1 1 
1 1 1 1 1 1 1 1 1 
1 1 1 1 1 1 1 1 1 
1 1 1 1 1 1 1 1 1 
1 1 1 1 1 1 1 1 1 
1 1 1 1 1 1 1 1 1 
1 1 1 1 1 1 1 1 1 
1 1 1 1 1 1 1 1 1 
1 1 1 1 1 1 1 1 1 
1 1 1 1 1 1 1 1 1 
1 1 1 1 1 1 1 1 1 
1 1 1 1 1 1 1 1 1 
1 1 1 1 1 1 1 1 1 
1 1 1 1 1 1 1 1 1 
1 1 1 1 1 1 1 1 1 
1 1 1 1 1 1 1 1 1 
1 1 1 1 1 1 1 1 1 
1 1 1 1 1 1 1 1 1 
1 1 1 1 1 1 1 1 1 
1 1 1 1 1 1 1 1 1 
1 1 1 1 1 1 1 1 1 
1 1 1 1 1 1 1 1 1 
1 1 1 1 1 1 1 1 1 
1 1 1 1 1 1 1 1 1 
1 1 1 1 1 1 1 1 1 
1 1 1 1 1 1 1 1 1 
1 1 1 1 1 1 1 1 1 
1 1 1 1 1 1 1 1 1 
1 1 1 1 1 1 1 1 1 
1 1 1 1 1 1 1 1 1 
1 1 1 1 1 1 1 1 1 
1 1 1 1 1 1 1 1 1 
1 1 1 1 1 1 1 1 1 
1 1 1 1 1 1 1 1 1 
1 1 1 1 1 1 1 1 1 
1 1 1 1 1 1 1 1 1 
1 1 1 1 1 1 1 1 1 
1 1 1 1 1 1 1 1 1 
1 1 1 1 1 1 1 1 1 
1 1 1 1 1 1 1 1 1 
1 1 1 1 1 1 1 1 1 
1 1 1 1 1 1 1 1 1 
1 1 1 1 1 1 1 1 1 
1 1 1 1 1 1 1 1 1 
1 1 1 1 1 1 1 1 1 
1 1 1 1 1 1 1 1 1 
1 1 1 1 1 1 1 1 1 
1 1 1 1 1 1 1 1 1 
1 1 1 1 1 1 1 1 1 
1 1 1 1 1 1 1 1 1 
1 1 1 1 1 1 1 1 1 
1 1 1 1 1 1 1 1 1 
1 1 1 1 1 1 1 1 1 
1 1 1 1 1 1 1 1 1 
1 1 1 1 1 1 1 1 1 
1 1 1 1 1 1 1 1 1 
1 1 1 1 1 1 1 1 1 
1 1 1 1 1 1 1 1 1 
1 1 1 1 1 1 1 1 1 
1 1 1 1 1 1 1 1 1 
1 1 1 1 1 1 1 1 1 
1 1 1 1 1 1 1 1 1 
1 1 1 1 1 1 1 1 1 
1 1 1 1 1 1 1 1 1 
1 1 1 1 1 1 1 1 1 
1 1 1 1 1 1 1 1 1 
1 1 1 1 1 1 1 1 1 
1 1 1 1 1 1 1 1 1 
1 1 1 1 1 1 1 1 1 
1 1 1 1 1 1 1 1 1 
1 1 1 1 1 1 1 1 1 
1 1 1 1 1 1 1 1 1 
1 1 1 1 1 1 1 1 1 
1 1 1 1 1 1 1 1 1 
1 1 1 1 1 1 1 1 1 
1 1 1 1 1 1 1 1 1 
1 1 1 1 1 1 1 1 1 
1 1 1 1 1 1 1 1 1 
1 1 1 1 1 1 1 1 1 
1 1 1 1 1 1 1 1 1 
1 1 1 1 1 1 1 1 1 
1 1 1 1 1 1 1 1 1 
1 1 1 1 1 1 1 1 1 
1 1 1 1 1 1 1 1 1 
1 1 1 1 1 1 1 1 1 
1 1 1 1 1 1 1 1 1 
1 1 1 1 1 1 1 1 1 
1 1 1 1 1 1 1 1 1 
1 1 1 1 1 1 1 1 1 
1 1 1 1 1 1 1 1 1 
1 1 1 1 1 1 1 1 1 
1 1 1 1 1 1 1 1 1 
1 1 1 1 1 1 1 1 1 
1 1 1 1 1 1 1 1 1 
1 1 1 1 1 1 1 1 1 
1 1 1 1 1 1 1 1 1 
1 1 1 1 1 1 1 1 1 
1 1 1 1 1 1 1 1 1 
1 1 1 1 1 1 1 1 1 
1 1 1 1 1 1 1 1 1 
1 1 1 1 1 1 1 1 1 
1 1 1 1 1 1 1 1 1 
1 1 1 1 1 1 1 1 1 
1 1 1 1 1 1 1 1 1 
1 1 1 1 1 1 1 1 1 
1 1 1 1 1 1 1 1 1 
1 1 1 1 1 1 1 1 1 
1 1 1 1 1 1 1 1 1 
1 1 1 1 1 1 1 1 1 
1 1 1 1 1 1 1 1 1 
1 1 1 1 1 1 1 1 1 
1 1 1 1 1 1 1 1 1 
1 1 1 1 1 1 1 1 1 
1 1 1 1 1 1 1 1 1 
1 1 1 1 1 1 1 1 1 
1 1 1 1 1 1 1 1 1 
1 1 1 1 1 1 1 1 1 
1 1 1 1 1 1 1 1 1 
1 1 1 1 1 1 1 1 1 
1 1 1 1 1 1 1 1 1 
1 1 1 1 1 1 1 1 1 
1 1 1 1 1 1 1 1 1 
1 1 1 1 1 1 1 1 1 
1 1 1 1 1 1 1 1 1 
1 1 1 1 1 1 1 1 1 
1 1 1 1 1 1 1 1 1 
1 1 1 1 1 1 1 1 1 
1 1 1 1 1 1 1 1 1 
1 1 1 1 1 1 1 1 1 
1 1 1 1 1 1 1 1 1 
1 1 1 1 1 1 1 1 1 
1 1 1 1 1 1 1 1 1 
1 1 1 1 1 1 1 1 1 
1 1 1 1 1 1 1 1 1 
1 1 1 1 1 1 1 1 1 
1 1 1 1 1 1 1 1 1 
1 1 1 1 1 1 1 1 1 
1 1 1 1 1 1 1 1 1 
1 1 1 1 1 1 1 1 1 
1 1 1 1 1 1 1 1 1 
1 1 1 1 1 1 1 1 1 
1 1 1 1 1 1 1 1 1 
1 1 1 1 1 1 1 1 1 
1 1 1 1 1 1 1 1 1 
1 1 1 1 1 1 1 1 1 
1 1 1 1 1 1 1 1 1 
1 1 1 1 1 1 1 1 1 
1 1 1 1 1 1 1 1 1 
1 1 1 1 1 1 1 1 1 
1 1 1 1 1 1 1 1 1 
1 1 1 1 1 1 1 1 1 
1 1 1 1 1 1 1 1 1 
1 1 1 1 1 1 1 1 1 
1 1 1 1 1 1 1 1 1 
1 1 1 1 1 1 1 1 1 
1 1 1 1 1 1 1 1 1 
1 1 1 1 1 1 1 1 1 
1 1 1 1 1 1 1 1 1 
1 1 1 1 1 1 1 1 1 
1 1 1 1 1 1 1 1 1 
1 1 1 1 1 1 1 1 1 
1 1 1 1 1 1 1 1 1 
1 1 1 1 1 1 1 1 1 
1 1 1 1 1 1 1 1 1 
1 1 1 1 1 1 1 1 1 
1 1 1 1 1 1 1 1 1 
1 1 1 1 1 1 1 1 1 
1 1 1 1 1 1 1 1 1 
1 1 1 1 1 1 1 1 1 
1 1 1 1 1 1 1 1 1 
1 1 1 1 1 1 1 1 1 
1 1 1 1 1 1 1 1 1 
1 1 1 1 1 1 1 1 1 
1 1 1 1 1 1 1 1 1 
1 1 1 1 1 1 1 1 1 
1 1 1 1 1 1 1 1 1 
1 1 1 1 1 1 1 1 1 
1 1 1 1 1 1 1 1 1 
1 1 1 1 1 1 1 1 1 
1 1 1 1 1 1 1 1 1 
1 1 1 1 1 1 1 1 1 
1 1 1 1 1 1 1 1 1 
1 1 1 1 1 1 1 1 1 
1 1 1 1 1 1 1 1 1 
1 1 1 1 1 1 1 1 1 
1 1 1 1 1 1 1 1 1 
1 1 1 1 1 1 1 1 1 
1 1 1 1 1 1 1 1 1 
1 1 1 1 1 1 1 1 1 
1 1 1 1 1 1 1 1 1 
1 1 1 1 1 1 1 1 1 
1 1 1 1 1 1 1 1 1 
1 1 1 1 1 1 1 1 1 
1 1 1 1 1 1 1 1 1 
1 1 1 1 1 1 1 1 1 
1 1 1 1 1 1 1 1 1 
1 1 1 1 1 1 1 1 1 
1 1 1 1 1 1 1 1 1 
1 1 1 1 1 1 1 1 1 
1 1 1 1 1 1 1 1 1 
1 1 1 1 1 1 1 1 1 
1 1 1 1 1 1 1 1 1 
1 1 1 1 1 1 1 1 1 
1 1 1 1 1 1 1 1 1 
1 1 1 1 1 1 1 1 1 
1 1 1 1 1 1 1 1 1 
1 1 1 1 1 1 1 1 1 
1 1 1 1 1 1 1 1 1 
1 1 1 1 1 1 1 1 1 
1 1 1 1 1 1 1 1 1 
1 1 1 1 1 1 1 1 1 
1 1 1 1 1 1 1 1 1 
1 1 1 1 1 1 1 1 1 
1 1 1 1 1 1 1 1 1 
1 1 1 1 1 1 1 1 1 
1 1 1 1 1 1 1 1 1 
1 1 1 1 1 1 1 1 1 
1 1 1 1 1 1 1 1 1 
1 1 1 1 1 1 1 1 1 
1 1 1 1 1 1 1 1 1 
1 1 1 1 1 1 1 1 1 
1 1 1 1 1 1 1 1 1 
1 1 1 1 1 1 1 1 1 
1 1 1 1 1 1 1 1 1 
1 1 1 1 1 1 1 1 1 
1 1 1 1 1 1 1 1 1 
1 1 1 1 1 1 1 1 1 
1 1 1 1 1 1 1 1 1 
1 1 1 1 1 1 1 1 1 
1 1 1 1 1 1 1 1 1 
1 1 1 1 1 1 1 1 1 
1 1 1 1 1 1 1 1 1 
1 1 1 1 1 1 1 1 1 
1 1 1 1 1 1 1 1 1 
1 1 1 1 1 1 1 1 1 
1 1 1 1 1 1 1 1 1 
1 1 1 1 1 1 1 1 1 
1 1 1 1 1 1 1 1 1 
1 1 1 1 1 1 1 1 1 
1 1 1 1 1 1 1 1 1 
1 1 1 1 1 1 1 1 1 
1 1 1 1 1 1 1 1 1 
1 1 1 1 1 1 1 1 1 
1 1 1 1 1 1 1 1 1 
1 1 1 1 1 1 1 1 1 
1 1 1 1 1 1 1 1 1 
1 1 1 1 1 1 1 1 1 
1 1 1 1 1 1 1 1 1 
1 1 1 1 1 1 1 1 1 
1 1 1 1 1 1 1 1 1 
1 1 1 1 1 1 1 1 1 
1 1 1 1 1 1 1 1 1 
1 1 1 1 1 1 1 1 1 
1 1 1 1 1 1 1 1 1 
1 1 1 1 1 1 1 1 1 
1 1 1 1 1 1 1 1 1 
1 1 1 1 1 1 1 1 1 
1 1 1 1 1 1 1 1 1 
1 1 1 1 1 1 1 1 1 
1 1 1 1 1 1 1 1 1 
1 1 1 1 1 1 1 1 1 
1 1 1 1 1 1 1 1 1 
1 1 1 1 1 1 1 1 1 
1 1 1 1 1 1 1 1 1 
1 1 1 1 1 1 1 1 1 
1 1 1 1 1 1 1 1 1 
1 1 1 1 1 1 1 1 1 
1 1 1 1 1 1 1 1 1 
1 1 1 1 1 1 1 1 1 
1 1 1 1 1 1 1 1 1 
1 1 1 1 1 1 1 1 1 
1 1 1 1 1 1 1 1 1 
1 1 1 1 1 1 1 1 1 
1 1 1 1 1 1 1 1 1 
1 1 1 1 1 1 1 1 1 
1 1 1 1 1 1 1 1 1 
1 1 1 1 1 1 1 1 1 
1 1 1 1 1 1 1 1 1 
1 1 1 1 1 1 1 1 1 
1 1 1 1 1 1 1 1 1 
1 1 1 1 1 1 1 1 1 
1 1 1 1 1 1 1 1 1 
1 1 1 1 1 1 1 1 1 
1 1 1 1 1 1 1 1 1 
1 1 1 1 1 1 1 1 1 
1 1 1 1 1 1 1 1 1 
1 1 1 1 1 1 1 1 1 
1 1 1 1 1 1 1 1 1 
1 1 1 1 1 1 1 1 1 
1 1 1 1 1 1 1 1 1 
1 1 1 1 1 1 1 1 1 
1 1 1 1 1 1 1 1 1 
1 1 1 1 1 1 1 1 1 
1 1 1 1 1 1 1 1 1 
1 1 1 1 1 1 1 1 1 
1 1 1 1 1 1 1 1 1 
1 1 1 1 1 1 1 1 1 
1 1 1 1 1 1 1 1 1 
1 1 1 1 1 1 1 1 1 
1 1 1 1 1 1 1 1 1 
1 1 1 1 1 1 1 1 1 
1 1 1 1 1 1 1 1 1 
1 1 1 1 1 1 1 1 1 
1 1 1 1 1 1 1 1 1 
1 1 1 1 1 1 1 1 1 
1 1 1 1 1 1 1 1 1 
1 1 1 1 1 1 1 1 1 
1 1 1 1 1 1 1 1 1 
1 1 1 1 1 1 1 1 1 
1 1 1 1 1 1 1 1 1 
1 1 1 1 1 1 1 1 1 
1 1 1 1 1 1 1 1 1 
1 1 1 1 1 1 1 1 1 
1 1 1 1 1 1 1 1 1 
1 1 1 1 1 1 1 1 1 
1 1 1 1 1 1 1 1 1 
1 1 1 1 1 1 1 1 1 
1 1 1 1 1 1 1 1 1 
1 1 1 1 1 1 1 1 1 
1 1 1 1 1 1 1 1 1 
1 1 1 1 1 1 1 1 1 
1 1 1 1 1 1 1 1 1 
1 1 1 1 1 1 1 1 1 
1 1 1 1 1 1 1 1 1 
1 1 1 1 1 1 1 1 1 
1 1 1 1 1 1 1 1 1 
1 1 1 1 1 1 1 1 1 
1 1 1 1 1 1 1 1 1 
1 1 1 1 1 1 1 1 1 
1 1 1 1 1 1 1 1 1 
1 1 1 1 1 1 1 1 1 
1 1 1 1 1 1 1 1 1 
1 1 1 1 1 1 1 1 1 
1 1 1 1 1 1 1 1 1 
1 1 1 1 1 1 1 1 1 
1 1 1 1 1 1 1 1 1 
1 1 1 1 1 1 1 1 1 
1 1 1 1 1 1 1 1 1 
1 1 1 1 1 1 1 1 1 
1 1 1 1 1 1 1 1 1 
1 1 1 1 1 1 1 1 1 
1 1 1 1 1 1 1 1 1 
1 1 1 1 1 1 1 1 1 
1 1 1 1 1 1 1 1 1 
1 1 1 1 1 1 1 1 1 
1 1 1 1 1 1 1 1 1 
1 1 1 1 1 1 1 1 1 
1 1 1 1 1 1 1 1 1 
1 1 1 1 1 1 1 1 1 
1 1 1 1 1 1 1 1 1 
1 1 1 1 1 1 1 1 1 
1 1 1 1 1 1 1 1 1 
1 1 1 1 1 1 1 1 1 
1 1 1 1 1 1 1 1 1 
1 1 1 1 1 1 1 1 1 
1 1 1 1 1 1 1 1 1 
1 1 1 1 1 1 1 1 1 
1 1 1 1 1 1 1 1 1 
1 1 1 1 1 1 1 1 1 
1 1 1 1 1 1 1 1 1 
1 1 1 1 1 1 1 1 1 
1 1 1 1 1 1 1 1 1 
1 1 1 1 1 1 1 1 1 
1 1 1 1 1 1 1 1 1 
1 1 1 1 1 1 1 1 1 
1 1 1 1 1 1 1 1 1 
1 1 1 1 1 1 1 1 1 
1 1 1 1 1 1 1 1 1 
1 1 1 1 1 1 1 1 1 
1 1 1 1 1 1 1 1 1 
1 1 1 1 1 1 1 1 1 
1 1 1 1 1 1 1 1 1 
1 1 1 1 1 1 1 1 1 
1 1 1 1 1 1 1 1 1 
1 1 1 1 1 1 1 1 1 
1 1 1 1 1 1 1 1 1 
1 1 1 1 1 1 1 1 1 
1 1 1 1 1 1 1 1 1 
1 1 1 1 1 1 1 1 1 
1 1 1 1 1 1 1 1 1 
1 1 1 1 1 1 1 1 1 
1 1 1 1 1 1 1 1 1 
1 1 1 1 1 1 1 1 1 
1 1 1 1 1 1 1 1 1 
1 1 1 1 1 1 1 1 1 
1 1 1 1 1 1 1 1 1 
1 1 1 1 1 1 1 1 1 
1 1 1 1 1 1 1 1 1 
1 1 1 1 1 1 1 1 1 
1 1 1 1 1 1 1 1 1 
1 1 1 1 1 1 1 1 1 
1 1 1 1 1 1 1 1 1 
1 1 1 1 1 1 1 1 1 
1 1 1 1 1 1 1 1 1 
1 1 1 1 1 1 1 1 1 
1 1 1 1 1 1 1 1 1 
1 1 1 1 1 1 1 1 1 
1 1 1 1 1 1 1 1 1 
1 1 1 1 1 1 1 1 1 
1 1 1 1 1 1 1 1 1 
1 1 1 1 1 1 1 1 1 
1 1 1 1 1 1 1 1 1 
1 1 1 1 1 1 1 1 1 
1 1 1 1 1 1 1 1 1 
1 1 1 1 1 1 1 1 1 
1 1 1 1 1 1 1 1 1 
1 1 1 1 1 1 1 1 1 
1 1 1 1 1 1 1 1 1 
1 1 1 1 1 1 1 1 1 
1 1 1 1 1 1 1 1 1 
1 1 1 1 1 1 1 1 1 
1 1 1 1 1 1 1 1 1 
1 1 1 1 1 1 1 1 1 
1 1 1 1 1 1 1 1 1 
1 1 1 1 1 1 1 1 1 
1 1 1 1 1 1 1 1 1 
1 1 1 1 1 1 1 1 1 
1 1 1 1 1 1 1 1 1 
1 1 1 1 1 1 1 1 1 
1 1 1 1 1 1 1 1 1 
1 1 1 1 1 1 1 1 1 
1 1 1 1 1 1 1 1 1 
1 1 1 1 1 1 1 1 1 
1 1 1 1 1 1 1 1 1 
1 1 1 1 1 1 1 1 1 
1 1 1 1 1 1 1 1 1 
1 1 1 1 1 1 1 1 1 
1 1 1 1 1 1 1 1 1 
1 1 1 1 1 1 1 1 1 
1 1 1 1 1 1 1 1 1 
1 1 1 1 1 1 1 1 1 
1 1 1 1 1 1 1 1 1 
1 1 1 1 1 1 1 1 1 
1 1 1 1 1 1 1 1 1 
1 1 1 1 1 1 1 1 1 
1 1 1 1 1 1 1 1 1 
1 1 1 1 1 1 1 1 1 
1 1 1 1 1 1 1 1 1 
1 1 1 1 1 1 1 1 1 
1 1 1 1 1 1 1 1 1 
1 1 1 1 1 1 1 1 1 
1 1 1 1 1 1 1 1 1 
1 1 1 1 1 1 1 1 1 
1 1 1 1 1 1 1 1 1 
1 1 1 1 1 1 1 1 1 
1 1 1 1 1 1 1 1 1 
1 1 1 1 1 1 1 1 1 
1 1 1 1 1 1 1 1 1 
1 1 1 1 1 1 1 1 1 
1 1 1 1 1 1 1 1 1 
1 1 1 1 1 1 1 1 1 
1 1 1 1 1 1 1 1 1 
1 1 1 1 1 1 1 1 1 
1 1 1 1 1 1 1 1 1 
1 1 1 1 1 1 1 1 1 
1 1 1 1 1 1 1 1 1 
1 1 1 1 1 1 1 1 1 
1 1 1 1 1 1 1 1 1 
1 1 1 1 1 1 1 1 1 
1 1 1 1 1 1 1 1 1 
1 1 1 1 1 1 1 1 1 
1 1 1 1 1 1 1 1 1 
1 1 1 1 1 1 1 1 1 
1 1 1 1 1 1 1 1 1 
1 1 1 1 1 1 1 1 1 
1 1 1 1 1 1 1 1 1 
1 1 1 1 1 1 1 1 1 
1 1 1 1 1 1 1 1 1 
1 1 1 1 1 1 1 1 1 
1 1 1 1 1 1 1 1 1 
1 1 1 1 1 1 1 1 1 
1 1 1 1 1 1 1 1 1 
1 1 1 1 1 1 1 1 1 
1 1 1 1 1 1 1 1 1 
1 1 1 1 1 1 1 1 1 
1 1 1 1 1 1 1 1 1 
1 1 1 1 1 1 1 1 1 
1 1 1 1 1 1 1 1 1 
1 1 1 1 1 1 1 1 1 
1 1 1 1 1 1 1 1 1 
1 1 1 1 1 1 1 1 1 
1 1 1 1 1 1 1 1 1 
1 1 1 1 1 1 1 1 1 
1 1 1 1 1 1 1 1 1 
1 1 1 1 1 1 1 1 1 
1 1 1 1 1 1 1 1 1 
1 1 1 1 1 1 1 1 1 
1 1 1 1 1 1 1 1 1 
1 1 1 1 1 1 1 1 1 
1 1 1 1 1 1 1 1 1 
1 1 1 1 1 1 1 1 1 
1 1 1 1 1 1 1 1 1 
1 1 1 1 1 1 1 1 1 
1 1 1 1 1 1 1 1 1 
1 1 1 1 1 1 1 1 1 
1 1 1 1 1 1 1 1 1 
1 1 1 1 1 1 1 1 1 
1 1 1 1 1 1 1 1 1 
1 1 1 1 1 1 1 1 1 
1 1 1 1 1 1 1 1 1 
1 1 1 1 1 1 1 1 1 
1 1 1 1 1 1 1 1 1 
1 1 1 1 1 1 1 1 1 
1 1 1 1 1 1 1 1 1 
1 1 1 1 1 1 1 1 1 
1 1 1 1 1 1 1 1 1 
1 1 1 1 1 1 1 1 1 
1 1 1 1 1 1 1 1 1 
1 1 1 1 1 1 1 1 1 
1 1 1 1 1 1 1 1 1 
1 1 1 1 1 1 1 1 1 
1 1 1 1 1 1 1 1 1 
1 1 1 1 1 1 1 1 1 
1 1 1 1 1 1 1 1 1 
1 1 1 1 1 1 1 1 1 
1 1 1 1 1 1 1 1 1 
1 1 1 1 1 1 1 1 1 
1 1 1 1 1 1 1 1 1 
1 1 1 1 1 1 1 1 1 
1 1 1 1 1 1 1 1 1 
1 1 1 1 1 1 1 1 1 
1 1 1 1 1 1 1 1 1 
1 1 1 1 1 1 1 1 1 
1 1 1 1 1 1 1 1 1 
1 1 1 1 1 1 1 1 1 
1 1 1 1 1 1 1 1 1 
1 1 1 1 1 1 1 1 1 
1 1 1 1 1 1 1 1 1 
1 1 1 1 1 1 1 1 1 
1 1 1 1 1 1 1 1 1 
1 1 1 1 1 1 1 1 1 
1 1 1 1 1 1 1 1 1 
1 1 1 1 1 1 1 1 1 
1 1 1 1 1 1 1 1 1 
1 1 1 1 1 1 1 1 1 
1 1 1 1 1 1 1 1 1 
1 1 1 1 1 1 1 1 1 
1 1 1 1 1 1 1 1 1 
1 1 1 1 1 1 1 1 1 
1 1 1 1 1 1 1 1 1 
1 1 1 1 1 1 1 1 1 
1 1 1 1 1 1 1 1 1 
1 1 1 1 1 1 1 1 1 
1 1 1 1 1 1 1 1 1 
1 1 1 1 1 1 1 1 1 
1 1 1 1 1 1 1 1 1 
1 1 1 1 1 1 1 1 1 
1 1 1 1 1 1 1 1 1 
1 1 1 1 1 1 1 1 1 
1 1 1 1 1 1 1 1 1 
1 1 1 1 1 1 1 1 1 
1 1 1 1 1 1 1 1 1 
1 1 1 1 1 1 1 1 1 
1 1 1 1 1 1 1 1 1 
1 1 1 1 1 1 1 1 1 
1 1 1 1 1 1 1 1 1 
1 1 1 1 1 1 1 1 1 
1 1 1 1 1 1 1 1 1 
1 1 1 1 1 1 1 1 1 
1 1 1 1 1 1 1 1 1 
1 1 1 1 1 1 1 1 1 
1 1 1 1 1 1 1 1 1 
1 1 1 1 1 1 1 1 1 
1 1 1 1 1 1 1 1 1 
1 1 1 1 1 1 1 1 1 
1 1 1 1 1 1 1 1 1 
1 1 1 1 1 1 1 1 1 
1 1 1 1 1 1 1 1 1 
1 1 1 1 1 1 1 1 1 
1 1 1 1 1 1 1 1 1 
1 1 1 1 1 1 1 1 1 
1 1 1 1 1 1 1 1 1 
1 1 1 1 1 1 1 1 1 
1 1 1 1 1 1 1 1 1 
1 1 1 1 1 1 1 1 1 
1 1 1 1 1 1 1 1 1 
1 1 1 1 1 1 1 1 1 
1 1 1 1 1 1 1 1 1 
1 1 1 1 1 1 1 1 1 
1 1 1 1 1 1 1 1 1 
1 1 1 1 1 1 1 1 1 
1 1 1 1 1 1 1 1 1 
1 1 1 1 1 1 1 1 1 
1 1 1 1 1 1 1 1 1 
1 1 1 1 1 1 1 1 1 
1 1 1 1 1 1 1 1 1 
1 1 1 1 1 1 1 1 1 
1 1 1 1 1 1 1 1 1 
1 1 1 1 1 1 1 1 1 
1 1 1 1 1 1 1 1 1 
1 1 1 1 1 1 1 1 1 
1 1 1 1 1 1 1 1 1 
1 1 1 1 1 1 1 1 1 
1 1 1 1 1 1 1 1 1 
1 1 1 1 1 1 1 1 1 
1 1 1 1 1 1 1 1 1 
1 1 1 1 1 1 1 1 1 
1 1 1 1 1 1 1 1 1 
1 1 1 1 1 1 1 1 1 
1 1 1 1 1 1 1 1 1 
1 1 1 1 1 1 1 1 1 
1 1 1 1 1 1 1 1 1 
1 1 1 1 1 1 1 1 1 
1 1 1 1 1 1 1 1 1 
1 1 1 1 1 1 1 1 1 
1 1 1 1 1 1 1 1 1 
1 1 1 1 1 1 1 1 1 
1 1 1 1 1 1 1 1 1 
1 1 1 1 1 1 1 1 1 
1 1 1 1 1 1 1 1 1 
1 1 1 1 1 1 1 1 1 
1 1 1 1 1 1 1 1 1 
1 1 1 1 1 1 1 1 1 
1 1 1 1 1 1 1 1 1 
1 1 1 1 1 1 1 1 1 
1 1 1 1 1 1 1 1 1 
1 1 1 1 1 1 1 1 1 
1 1 1 1 1 1 1 1 1 
1 1 1 1 1 1 1 1 1 
1 1 1 1 1 1 1 1 1 
1 1 1 1 1 1 1 1 1 
1 1 1 1 1 1 1 1 1 
1 1 1 1 1 1 1 1 1 
1 1 1 1 1 1 1 1 1 
1 1 1 1 1 1 1 1 1 
1 1 1 1 1 1 1 1 1 
1 1 1 1 1 1 1 1 1 
1 1 1 1 1 1 1 1 1 
1 1 1 1 1 1 1 1 1 
1 1 1 1 1 1 1 1 1 
1 1 1 1 1 1 1 1 1 
1 1 1 1 1 1 1 1 1 
1 1 1 1 1 1 1 1 1 
1 1 1 1 1 1 1 1 1 
1 1 1 1 1 1 1 1 1 
1 1 1 1 1 1 1 1 1 
1 1 1 1 1 1 1 1 1 
1 1 1 1 1 1 1 1 1 
1 1 1 1 1 1 1 1 1 
1 1 1 1 1 1 1 1 1 
1 1 1 1 1 1 1 1 1 
1 1 1 1 1 1 1 1 1 
1 1 1 1 1 1 1 1 1 
1 1 1 1 1 1 1 1 1 
1 1 1 1 1 1 1 1 1 
1 1 1 1 1 1 1 1 1 
1 1 1 1 1 1 1 1 1 
1 1 1 1 1 1 1 1 1 
1 1 1 1 1 1 1 1 1 
1 1 1 1 1 1 1 1 1 
1 1 1 1 1 1 1 1 1 
1 1 1 1 1 1 1 1 1 
1 1 1 1 1 1 1 1 1 
1 1 1 1 1 1 1 1 1 
1 1 1 1 1 1 1 1 1 
1 1 1 1 1 1 1 1 1 
1 1 1 1 1 1 1 1 1 
1 1 1 1 1 1 1 1 1 
1 1 1 1 1 1 1 1 1 
1 1 1 1 1 1 1 1 1 
1 1 1 1 1 1 1 1 1 
1 1 1 1 1 1 1 1 1 
1 1 1 1 1 1 1 1 1 
1 1 1 1 1 1 1 1 1 
1 1 1 1 1 1 1 1 1 
1 1 1 1 1 1 1 1 1 
1 1 1 1 1 1 1 1 1 
1 1 1 1 1 1 1 1 1 
1 1 1 1 1 1 1 1 1 
1 1 1 1 1 1 1 1 1 
1 1 1 1 1 1 1 1 1 
1 1 1 1 1 1 1 1 1 
1 1 1 1 1 1 1 1 1 
1 1 1 1 1 1 1 1 1 
1 1 1 1 1 1 1 1 1 
1 1 1 1 1 1 1 1 1 
1 1 1 1 1 1 1 1 1 
1 1 1 1 1 1 1 1 1 
1 1 1 1 1 1 1 1 1 
1 1 1 1 1 1 1 1 1 
1 1 1 1 1 1 1 1 1 
1 1 1 1 1 1 1 1 1 
1 1 1 1 1 1 1 1 1 
1 1 1 1 1 1 1 1 1 
1 1 1 1 1 1 1 1 1 
1 1 1 1 1 1 1 1 1 
1 1 1 1 1 1 1 1 1 
1 1 1 1 1 1 1 1 1 
1 1 1 1 1 1 1 1 1 
1 1 1 1 1 1 1 1 1 
1 1 1 1 1 1 1 1 1 
1 1 1 1 1 1 1 1 1 
1 1 1 1 1 1 1 1 1 
1 1 1 1 1 1 1 1 1 
1 1 1 1 1 1 1 1 1 
1 1 1 1 1 1 1 1 1 
1 1 1 1 1 1 1 1 1 
1 1 1 1 1 1 1 1 1 
1 1 1 1 1 1 1 1 1 
1 1 1 1 1 1 1 1 1 
1 1 1 1 1 1 1 1 1 
1 1 1 1 1 1 1 1 1 
1 1 1 1 1 1 1 1 
NORMALS normals float
-0.0156231 0 -0.999878 -0.0111345 -0.701474 -0.712608 -0.999878 0 -0.0156231 
0.0156212 -0.0156212 -0.999756 0.0110479 -0.707064 -0.707064 0.707064 -0.0110479 -0.707064 
-0.580357 0.571289 -0.580357 -0.571289 0.580357 -0.580357 0 0.0156231 -0.999878 
0.701474 0.0111345 -0.712608 0 0.707107 -0.707107 -0.0156231 0 -0.999878 
-0.0111345 -0.701474 -0.712608 -0.707107 0 -0.707107 0 0 -1 
0 -0.701517 -0.712652 0 0 -1 0 -0.701517 -0.712652 
0 0 -1 0 -0.701517 -0.712652 0 0 -1 
0 -0.701517 -0.712652 0 0 -1 0 -0.701517 -0.712652 
0 0 -1 0 -0.701517 -0.712652 0 0 -1 
0 -0.701517 -0.712652 0 0 -1 0 -0.701517 -0.712652 
0 0 -1 0 -0.701517 -0.712652 0 0 -1 
0 -0.701517 -0.712652 0.0156231 0 -0.999878 0.0111345 -0.701474 -0.712608 
0.707107 0 -0.707107 -0.015869 0.999748 -0.015869 0 0.701517 -0.712652 
0 0.701517 -0.712652 0 0.701517 -0.712652 0 0.701517 -0.712652 
0 0.701517 -0.712652 0 0.701517 -0.712652 0 0.701517 -0.712652 
0 0.701517 -0.712652 0 0.701517 -0.712652 0 0.701517 -0.712652 
0.0111345 0.701474 -0.712608 -0.0156212 -0.0156212 -0.999756 -0.0156212 -0.999756 -0.0156212 
-0.999756 -0.0156212 -0.0156212 0 -0.0156231 -0.999878 0 -0.999878 -0.0156231 
0 -0.0156231 -0.999878 0 -0.999878 -0.0156231 0 -0.0156231 -0.999878 
0 -0.999878 -0.0156231 0 -0.0156231 -0.999878 0 -0.999878 -0.0156231 
0.0156212 -0.0156212 -0.999756 0.0156212 -0.999756 -0.0156212 0.999756 -0.0156212 -0.0156212 
-0.0156231 0 -0.999878 -0.999878 0 -0.0156231 0 0 -1 
0 0 -1 0 0 -1 0 0 -1 
0.0156231 0 -0.999878 0.712608 -0.701474 -0.0111345 -0.0156231 0 -0.999878 
-0.999878 0 -0.0156231 0 0 -1 0 0 -1 
0 0 -1 0 0 -1 0 0 -1 
0.701474 -0.712608 -0.0111345 0 -0.0156231 -0.999878 0 -0.0156231 -0.999878 
0 -0.999878 -0.0156231 0 -0.0156231 -0.999878 0 -0.999878 -0.0156231 
0 -0.0156231 -0.999878 0 -0.999878 -0.0156231 0 -0.0156231 -0.999878 
0 -0.999878 -0.0156231 0 -0.0156231 -0.999878 0 -0.999878 -0.0156231 
0 -0.0156231 -0.999878 0 -0.999878 -0.0156231 0 -0.0156231 -0.999878 
0 -0.999878 -0.0156231 0 -0.0156231 -0.999878 0 -0.999878 -0.0156231 
0.0156212 -0.0156212 -0.999756 0.0156212 -0.999756 -0.0156212 0.999756 -0.0156212 -0.0156212 
-0.0156231 0 -0.999878 -0.999878 0 -0.0156231 0 0 -1 
0 0 -1 0 0 -1 0 0 -1 
0 0 -1 0 0 -1 0 0 -1 
0 0 -1 0 0 -1 0 0 -1 
0 0 -1 0 0 -1 0 0 -1 
0 0 -1 0.0156231 0 -0.999878 0.580357 -0.571289 -0.580357 
-0.0111345 -0.701474 -0.712608 -0.999878 0 -0.0156231 0 -0.701517 -0.712652 
0 0 -1 0 0 -1 0 0 -1 
0 0 -1 0 0 -1 0 0 -1 
0 0 -1 0 0 -1 0 0 -1 
0 0 -1 0 0 -1 0 0 -1 
0 0 -1 0 0 -1 0.571289 -0.580357 -0.580357 
0 -0.0156231 -0.999878 0.0156212 -0.0156212 -0.999756 0.0156212 -0.999756 -0.0156212 
0.999756 -0.0156212 -0.0156212 -1 0 0 0.701517 0 -0.712652 
0 0 -1 0 0 -1 0 0 -1 
0 0 -1 0 0 -1 0 0 -1 
0 0 -1 0 0 -1 0 0 -1 
0 0 -1 0 0 -1 0 0 -1 
0 0 -1 0 0 -1 0.0156231 0 -0.999878 
0.999878 0 -0.0156231 -0.580357 0.571289 -0.580357 -0.999878 0 -0.0156231 
0.701517 0 -0.712652 0 0 -1 0 0 -1 
0 -0.701517 -0.712652 0 -0.701517 -0.712652 0 -0.701517 -0.712652 
0 -0.701517 -0.712652 0 -0.701517 -0.712652 0 -0.701517 -0.712652 
0 -0.701517 -0.712652 0 -0.701517 -0.712652 0 -0.701517 -0.712652 
0 -0.701517 -0.712652 0 -0.701517 -0.712652 0 -0.701517 -0.712652 
0.0156231 0 -0.999878 0.999878 0 -0.0156231 -0.015869 0.015869 -0.999748 
-0.999878 0.0156231 0 0 0.712652 -0.701517 0 0.015871 -0.999874 
0 0.0156231 -0.999878 -0.701474 0.0111345 -0.712608 0.707107 0 -0.707107 
0.999878 0 -0.0156231 -0.0156231 0.999878 0 0 1 0 
0 1 0 0 0.999878 -0.0156231 0 0.999878 -0.0156231 
-0.574296 0.583411 -0.574296 -0.0111345 0.701474 -0.712608 -0.580357 0.571289 -0.580357 
0 0.701517 -0.712652 0 0.701517 -0.712652 0 0.701517 -0.712652 
0 0.701517 -0.712652 0 0.701517 -0.712652 0 0.701517 -0.712652 
0 0.701517 -0.712652 0 0.701517 -0.712652 0 0.701517 -0.712652 
0 0.701517 -0.712652 0.0156231 0 -0.999878 0.999878 0 -0.0156231 
-0.0156212 0.0156212 -0.999756 -0.707064 0.0110479 -0.707064 0 0.0156231 -0.999878 
0 0 -1 0 0 -1 0 0 -1 
0 0 -1 0 0 -1 0 0 -1 
0 0 -1 0 0 -1 0 0 -1 
0.0156231 0 -0.999878 0.999878 0 -0.0156231 -0.0156212 0.999756 -0.0156212 
-0.571289 0.580357 -0.580357 -0.580357 0.571289 -0.580357 -0.0156231 0 -0.999878 
0 0 -1 0 0 -1 0 0 -1 
0 0 -1 0 0 -1 0 0 -1 
0 0 -1 0 0 -1 0.0156212 0.0156212 -0.999756 
0.999756 0.0156212 -0.0156212 -0.0156212 0.0156212 -0.999756 -0.999756 0.0156212 -0.0156212 
0 0.0156231 -0.999878 0 0.0156231 -0.999878 0 0.0156231 -0.999878 
0 0.0156231 -0.999878 0 0.0156231 -0.999878 0 0.0156231 -0.999878 
0 0.0156231 -0.999878 0.0156212 0.0156212 -0.999756 0.707064 0.707064 -0.0110479 
0.707064 0.707064 -0.0110479 -0.0156212 0.999756 -0.0156212 0 0.999878 -0.0156231 
0 0.999878 -0.0156231 0 0.999878 -0.0156231 0 0.999878 -0.0156231 
0 0.999878 -0.0156231 0 0.999878 -0.0156231 0 0.999878 -0.0156231 
0.0156212 0.999756 -0.0156212 -0.0156212 -0.999756 0.0156212 -0.999756 -0.0156212 0.0156212 
0 -0.999878 0.0156231 0 -0.999878 0.0156231 0 -0.999878 0.0156231 
0 -1 0 0.0156231 -0.999878 0 0.999878 -0.0156231 0 
-0.999878 0 0.0156231 0.712652 -0.701517 0 -0.999878 0 0.0156231 
0.701517 -0.712652 0 0 -1 0 0 -1 0 
0 -1 0 0 -1 0 0 -1 0 
0 -1 0 0 -1 0 0 -1 0 
0.0156231 -0.999878 0 0.580357 -0.580357 -0.571289 -0.999878 0 0.0156231 
0.57735 -0.57735 -0.57735 0.57735 -0.57735 -0.57735 0.57735 -0.57735 -0.57735 
-0.999878 0 0.0156231 0.580357 -0.580357 -0.571289 0.999878 -0.0156231 0 
-0.999878 0 0.0156231 1 0 0 -0.999756 0.0156212 0.0156212 
1 0 0 -0.0110479 0.707064 0.707064 -0.0111345 0.712608 0.701474 
0 0.707107 0.707107 0 0.712652 0.701517 -0.571289 0.580357 0.580357 
-0.574296 0.583411 0.574296 -0.57735 0.57735 0.57735 1 0 0 
-0.0156212 0.999756 0.0156212 -0.574296 0.583411 -0.574296 -0.580357 0.571289 -0.580357 