# vtk DataFile Version 3.0
vtk output
ASCII
DATASET POLYDATA
POINTS 5398 float
61 129 34.012 61 128.012 35 60.012 129 35 
61.988 129 35 61 129.988 35 61 128 35.012 
61 127.012 36 60.012 128 36 62 128 35.012 
62 127.012 36 62.988 128 36 60.012 129 36 
62 129 35.012 62.988 129 36 61 130 35.012 
60.012 130 36 62 130 35.012 62.988 130 36 
61 131 35.012 60.012 131 36 61.988 131 36 
62 130.988 36 61 131.988 36 71 142 35.012 
71 141.012 36 70.012 142 36 72 142 35.012 
72 141.012 36 72.988 142 36 70 143 35.012 
70 142.012 36 69.012 143 36 71 143 35.012 
71.988 143 36 72 142.988 36 69 144 35.012 
69 143.012 36 68.012 144 36 70 144 35.012 
70.988 144 36 71 143.988 36 68 145 35.012 
68 144.012 36 67.012 145 36 69 145 35.012 
69.988 145 36 70 144.988 36 67 146 35.012 
67 145.012 36 66.012 146 36 68 146 35.012 
68.988 146 36 69 145.988 36 66 147 35.012 
66 146.012 36 65.012 147 36 67 147 35.012 
68 147 35.012 68.988 147 36 63 148 35.012 
63 147.012 36 62.012 148 36 64 148 35.012 
64 147.012 36 65 148 35.012 65 147.012 36 
66 148 35.012 67 148 35.012 68 148 35.012 
68.988 148 36 62 149 35.012 62 148.012 36 
61.012 149 36 63 149 35.012 64 149 35.012 
65 149 35.012 66 149 35.012 67 149 35.012 
67.988 149 36 68 148.988 36 59 150 35.012 
59 149.012 36 58.012 150 36 60 150 35.012 
60 149.012 36 61 150 35.012 61 149.012 36 
62 150 35.012 63 150 35.012 64 150 35.012 
64.988 150 36 65 149.988 36 66 149.988 36 
67 149.988 36 58 151 35.012 58 150.012 36 
57.012 151 36 59 151 35.012 60 151 35.012 
61 151 35.012 62 151 35.012 63 151 35.012 
63.988 151 36 64 150.988 36 57 152 35.012 
57 151.012 36 56.012 152 36 58 152 35.012 
59 152 35.012 60 152 35.012 60.988 152 36 
61 151.988 36 62 151.988 36 63 151.988 36 
57 153 35.012 56.012 153 36 58 153 35.012 
59 153 35.012 59.988 153 36 60 152.988 36 
57 153.988 36 58 153.988 36 59 153.988 36 
61 127 36.012 61 126.012 37 60.012 127 37 
61.988 127 37 60.012 128 37 62 127.012 37 
62.988 128 37 60.012 129 37 62.988 129 37 
60.012 130 37 62.988 130 37 60.012 131 37 
62 131 36.012 62.988 131 37 61 131.988 37 
62 131.988 37 70 141 36.012 70 140.012 37 
69.012 141 37 71 141 36.012 71 140.012 37 
71.988 141 37 70 142 36.012 69.012 142 37 
72 141.012 37 72.988 142 37 68 143 36.012 
68 142.012 37 67.012 143 37 69 143 36.012 
69 142.012 37 71.988 143 37 72 142.988 37 
68 144 36.012 67.012 144 37 70.988 144 37 
71 143.988 37 66 145 36.012 66 144.012 37 
65.012 145 37 67 145 36.012 67 144.012 37 
69.988 145 37 70 144.988 37 66 146 36.012 
65.012 146 37 68.988 146 37 69 145.988 37 
63 147 36.012 63 146.012 37 62.012 147 37 
64 147 36.012 64 146.012 37 65 147 36.012 
65 146.012 37 68.988 147 37 62 148 36.012 
62 147.012 37 61.012 148 37 68.988 148 37 
60 149 36.012 60 148.012 37 59.012 149 37 
61 149 36.012 61 148.012 37 67.988 149 37 
68 148.988 37 59 149.012 37 58.012 150 37 
64.988 150 37 65 149.988 37 66 149.988 37 
67 149.988 37 58 150.012 37 57.012 151 37 
63.988 151 37 64 150.988 37 57 151.012 37 
56.012 152 37 60.988 152 37 61 151.988 37 
62 151.988 37 63 151.988 37 56 153 36.012 
56 152.012 37 55.012 153 37 59.988 153 37 
60 152.988 37 56 153.988 37 57 153.988 37 
58 153.988 37 59 153.988 37 61 127 37.988 
61 127.012 38 60.012 128 38 62 127.012 38 
62.988 128 38 60.012 129 38 62.988 129 38 
60.012 130 38 63 129.012 38 63 130 37.012 
64 130 37.012 64 129.012 38 65 130 37.012 
65 129.012 38 66 130 37.012 66 129.012 38 
66.988 130 38 71 130 37.012 71 129.012 38 
70.012 130 38 72 130 37.012 72 129.012 38 
72.988 130 38 60 131 37.012 60 130.012 38 
59.012 131 38 63 131 37.012 64 131 37.012 
65 131 37.012 66 131 37.012 66.988 131 38 
70 131 37.012 70 130.012 38 69.012 131 38 
71 131 37.012 72 131 37.012 72.988 131 38 
60 131.988 38 61 132 37.012 60.012 132 38 
62 132 37.012 63 132 37.012 64 132 37.012 
65 132 37.012 66 132 37.012 67 131.012 38 
67 132 37.012 68 132 37.012 68 131.012 38 
69 132 37.012 69 131.012 38 70 132 37.012 
71 132 37.012 72 132 37.012 72.988 132 38 
61 133 37.012 60.012 133 38 62 133 37.012 
63 133 37.012 64 133 37.012 65 133 37.012 
66 133 37.012 67 133 37.012 68 133 37.012 
69 133 37.012 70 133 37.012 71 133 37.012 
72 133 37.012 72.988 133 38 61 133.988 38 
62 133.988 38 62.012 134 38 63 134 37.012 
64 134 37.012 65 134 37.012 66 134 37.012 
67 134 37.012 68 134 37.012 69 134 37.012 
70 134 37.012 71 134 37.012 72 134 37.012 
72.988 134 38 63 135 37.012 62.012 135 38 
64 135 37.012 65 135 37.012 66 135 37.012 
67 135 37.012 68 135 37.012 69 135 37.012 
70 135 37.012 71 135 37.012 72 135 37.012 
72.988 135 38 63 136 37.012 62.012 136 38 
64 136 37.012 65 136 37.012 66 136 37.012 
67 136 37.012 68 136 37.012 69 136 37.012 
70 136 37.012 71 136 37.012 72 136 37.012 
72.988 136 38 63 137 37.012 62.012 137 38 
64 137 37.012 65 137 37.012 66 137 37.012 
67 137 37.012 68 137 37.012 69 137 37.012 
70 137 37.012 71 137 37.012 72 137 37.012 
72.988 137 38 63 138 37.012 62.012 138 38 
64 138 37.012 65 138 37.012 66 138 37.012 
67 138 37.012 68 138 37.012 69 138 37.012 
70 138 37.012 71 138 37.012 72 138 37.012 
72.988 138 38 63 139 37.012 62.012 139 38 
64 139 37.012 65 139 37.012 66 139 37.012 
67 139 37.012 68 139 37.012 69 139 37.012 
70 139 37.012 71 139 37.012 72 139 37.012 
72.988 139 38 63 139.988 38 64 139.988 38 
64.012 140 38 65 140 37.012 66 140 37.012 
67 140 37.012 68 140 37.012 69 140 37.012 
70 140 37.012 71 140 37.012 72 140 37.012 
72.988 140 38 64 141 37.012 64 140.012 38 
63.012 141 38 65 141 37.012 66 141 37.012 
67 141 37.012 68 141 37.012 69 141 37.012 
72 141 37.012 72.988 141 38 63 142 37.012 
63 141.012 38 62.012 142 38 64 142 37.012 
65 142 37.012 66 142 37.012 67 142 37.012 
68 142 37.012 69 142 37.012 72.988 142 38 
63 143 37.012 62.012 143 38 64 143 37.012 
65 143 37.012 66 143 37.012 67 143 37.012 
71.988 143 38 72 142.988 38 63 144 37.012 
62.012 144 38 64 144 37.012 65 144 37.012 
66 144 37.012 67 144 37.012 70.988 144 38 
71 143.988 38 63 145 37.012 62.012 145 38 
64 145 37.012 65 145 37.012 69.988 145 38 
70 144.988 38 63 146 37.012 62.012 146 38 
64 146 37.012 65 146 37.012 68.988 146 38 
69 145.988 38 62 147 37.012 62 146.012 38 
61.012 147 38 68.988 147 38 47 148 37.012 
47 147.012 38 46.012 148 38 48 148 37.012 
48 147.012 38 48.988 148 38 61 148 37.012 
61 147.012 38 60.012 148 38 68.988 148 38 
47 149 37.012 46.012 149 38 48 149 37.012 
48.988 149 38 60 148.012 38 59.012 149 38 
67.988 149 38 68 148.988 38 47 149.988 38 
48 149.988 38 49 149.012 38 48.012 150 38 
49 150 37.012 50 150 37.012 50 149.012 38 
50.988 150 38 59 149.012 38 58.012 150 38 
64.988 150 38 65 149.988 38 66 149.988 38 
67 149.988 38 49 151 37.012 48.012 151 38 
50 151 37.012 50.988 151 38 58 150.012 38 
57.012 151 38 63.988 151 38 64 150.988 38 
49 151.988 38 50 151.988 38 51 151.012 38 
50.012 152 38 51 152 37.012 52 152 37.012 
52 151.012 38 52.988 152 38 57 151.012 38 
56.012 152 38 61 152 37.012 62 152 37.012 
62.988 152 38 63 151.988 38 51 153 37.012 
50.012 153 38 51.988 153 38 52 152.988 38 
56 152.012 38 55.012 153 38 60 153 37.012 
61 153 37.012 61.988 153 38 62 152.988 38 
51 153.988 38 55 154 37.012 55 153.012 38 
54.012 154 38 56 154 37.012 57 154 37.012 
58 154 37.012 58.988 154 38 59 153.988 38 
60 153.988 38 61 153.988 38 55 155 37.012 
54.012 155 38 56 155 37.012 57 155 37.012 
57.988 155 38 58 154.988 38 55 155.988 38 
56 155.988 38 57 155.988 38 61 127.012 39 
60.012 128 39 62 128 38.988 61.988 128 39 
60.012 129 39 62 129 38.988 61.988 129 39 
60.012 130 39 62 129.012 39 63 129.012 39 
64 129.012 39 65 129.012 39 66 130 38.988 
65.988 130 39 71 129.012 39 70.012 130 39 
72 130 38.988 71.988 130 39 60 131 38.988 
60.012 131 39 66 131 38.988 65.988 131 39 
70 131 38.988 70.012 131 39 72 131 38.988 
71.988 131 39 60.012 132 39 66 131.012 39 
67 131.012 39 68 131.012 39 69 131.012 39 
70 131.012 39 72 132 38.988 71.988 132 39 
60.012 133 39 72 132.012 39 72.988 133 39 
61 133.988 39 62 134 38.012 61.012 134 39 
72.988 134 39 62 135 38.012 61.012 135 39 
72.988 135 39 62 136 38.012 61.012 136 39 
72.988 136 39 62 137 38.012 61.012 137 39 
72.988 137 39 62 138 38.012 61.012 138 39 
72.988 138 39 62 139 38.012 61.012 139 39 
72.988 139 39 62 139.988 39 63 139.988 39 
64 140 38.012 63.012 140 39 72.988 140 39 
62 141 38.012 62 140.012 39 61.012 141 39 
63 141 38.012 63 140.012 39 72 141 38.988 
71.988 141 39 72 140.988 39 62 142 38.012 
61.012 142 39 72 142 38.988 71.988 142 39 
62 143 38.012 61.012 143 39 71 143 38.988 
70.988 143 39 71 142.988 39 62 144 38.012 
61.012 144 39 70.988 144 39 62 145 38.012 
61.012 145 39 69.988 145 39 70 144.988 39 
62 146 38.012 61.012 146 39 68.988 146 39 
69 145.988 39 60 147 38.012 60 146.012 39 
59.012 147 39 61 147 38.012 61 146.012 39 
68.988 147 39 47 147.012 39 46.012 148 39 
48 147.012 39 48.988 148 39 60 148 38.012 
59.012 148 39 68.988 148 39 46.012 149 39 
49 148.012 39 49 149 38.012 50 149 38.012 
50 148.012 39 50.988 149 39 58 149 38.012 
58 148.012 39 57.012 149 39 59 149 38.012 
59 148.012 39 67.988 149 39 68 148.988 39 
47 149.988 39 48 149.988 39 48.012 150 39 
50.988 150 39 58 150 38.012 57.012 150 39 
64.988 150 39 65 149.988 39 66 149.988 39 
67 149.988 39 48.012 151 39 51 150.012 39 
51 151 38.012 52 151 38.012 52 150.012 39 
52.988 151 39 56 151 38.012 56 150.012 39 
55.012 151 39 57 151 38.012 57 150.012 39 
64 151 38.012 64.988 151 39 49 151.988 39 
50 151.988 39 50.012 152 39 52.988 152 39 
56 152 38.012 55.012 152 39 62.988 152 39 
63 151.988 39 64 151.988 39 50.012 153 39 
52 153 38.012 53 152.012 39 53 153 38.012 
54 153 38.012 54 152.012 39 55 153 38.012 
55 152.012 39 61.988 153 39 62 152.988 39 
51 153.988 39 52 153.988 39 53 153.988 39 
53.012 154 39 54 154 38.012 58.988 154 39 
59 153.988 39 60 153.988 39 61 153.988 39 
54 154.988 39 54.012 155 39 57.988 155 39 
58 154.988 39 55 155.988 39 56 155.988 39 
57 155.988 39 61 128 39.988 61 129 39.988 
61 130 39.988 62 130 39.988 63 130 39.988 
64 130 39.988 65 130 39.988 71 130 39.988 
61 131 39.988 62 131 39.988 63 131 39.988 
[...]
POINT_DATA 5398
SCALARS scalars float
LOOKUP_TABLE default
1 1 1 1 1 1 1 1 1 
1 1 1 1 1 1 1 1 1 
1 1 1 1 1 1 1 1 1 
1 1 1 1 1 1 1 1 1 
1 1 1 1 1 1 1 1 1 
1 1 1 1 1 1 1 1 1 
1 1 1 1 1 1 1 1 1 
1 1 1 1 1 1 1 1 1 
1 1 1 1 1 1 1 1 1 
1 1 1 1 1 1 1 1 1 
1 1 1 1 1 1 1 1 1 
1 1 1 1 1 1 1 1 1 
1 1 1 1 1 1 1 1 1 
1 1 1 1 1 1 1 1 1 
1 1 1 1 1 1 1 1 1 
1 1 1 1 1 1 1 1 1 
1 1 1 1 1 1 1 1 1 
1 1 1 1 1 1 1 1 1 
1 1 1 1 1 1 1 1 1 
1 1 1 1 1 1 1 1 1 
1 1 1 1 1 1 1 1 1 
1 1 1 1 1 1 1 1 1 
1 1 1 1 1 1 1 1 1 
1 1 1 1 1 1 1 1 1 
1 1 1 1 1 1 1 1 1 
1 1 1 1 1 1 1 1 1 
1 1 1 1 1 1 1 1 1 
1 1 1 1 1 1 1 1 1 
1 1 1 1 1 1 1 1 1 
1 1 1 1 1 1 1 1 1 
1 1 1 1 1 1 1 1 1 
1 1 1 1 1 1 1 1 1 
1 1 1 1 1 1 1 1 1 
1 1 1 1 1 1 1 1 1 
1 1 1 1 1 1 1 1 1 
1 1 1 1 1 1 1 1 1 
1 1 1 1 1 1 1 1 1 
1 1 1 1 1 1 1 1 1 
1 1 1 1 1 1 1 1 1 
1 1 1 1 1 1 1 1 1 
1 1 1 1 1 1 1 1 1 
1 1 1 1 1 1 1 1 1 
1 1 1 1 1 1 1 1 1 
1 1 1 1 1 1 1 1 1 
1 1 1 1 1 1 1 1 1 
1 1 1 1 1 1 1 1 1 
1 1 1 1 1 1 1 1 1 
1 1 1 1 1 1 1 1 1 
1 1 1 1 1 1 1 1 1 
1 1 1 1 1 1 1 1 1 
1 1 1 1 1 1 1 1 1 
1 1 1 1 1 1 1 1 1 
1 1 1 1 1 1 1 1 1 
1 1 1 1 1 1 1 1 1 
1 1 1 1 1 1 1 1 1 
1 1 1 1 1 1 1 1 1 
1 1 1 1 1 1 1 1 1 
1 1 1 1 1 1 1 1 1 
1 1 1 1 1 1 1 1 1 
1 1 1 1 1 1 1 1 1 
1 1 1 1 1 1 1 1 1 
1 1 1 1 1 1 1 1 1 
1 1 1 1 1 1 1 1 1 
1 1 1 1 1 1 1 1 1 
1 1 1 1 1 1 1 1 1 
1 1 1 1 1 1 1 1 1 
1 1 1 1 1 1 1 1 1 
1 1 1 1 1 1 1 1 1 
1 1 1 1 1 1 1 1 1 
1 1 1 1 1 1 1 1 1 
1 1 1 1 1 1 1 1 1 
1 1 1 1 1 1 1 1 1 
1 1 1 1 1 1 1 1 1 
1 1 1 1 1 1 1 1 1 
1 1 1 1 1 1 1 1 1 
1 1 1 1 1 1 1 1 1 
1 1 1 1 1 1 1 1 1 
1 1 1 1 1 1 1 1 1 
1 1 1 1 1 1 1 1 1 
1 1 1 1 1 1 1 1 1 
1 1 1 1 1 1 1 1 1 
1 1 1 1 1 1 1 1 1 
1 1 1 1 1 1 1 1 1 
1 1 1 1 1 1 1 1 1 
1 1 1 1 1 1 1 1 1 
1 1 1 1 1 1 1 1 1 
1 1 1 1 1 1 1 1 1 
1 1 1 1 1 1 1 1 1 
1 1 1 1 1 1 1 1 1 
1 1 1 1 1 1 1 1 1 
1 1 1 1 1 1 1 1 1 
1 1 1 1 1 1 1 1 1 
1 1 1 1 1 1 1 1 1 
1 1 1 1 1 1 1 1 1 
1 1 1 1 1 1 1 1 1 
1 1 1 1 1 1 1 1 1 
1 1 1 1 1 1 1 1 1 
1 1 1 1 1 1 1 1 1 
1 1 1 1 1 1 1 1 1 
1 1 1 1 1 1 1 1 1 
1 1 1 1 1 1 1 1 1 
1 1 1 1 1 1 1 1 1 
1 1 1 1 1 1 1 1 1 
1 1 1 1 1 1 1 1 1 
1 1 1 1 1 1 1 1 1 
1 1 1 1 1 1 1 1 1 
1 1 1 1 1 1 1 1 1 
1 1 1 1 1 1 1 1 1 
1 1 1 1 1 1 1 1 1 
1 1 1 1 1 1 1 1 1 
1 1 1 1 1 1 1 1 1 
1 1 1 1 1 1 1 1 1 
1 1 1 1 1 1 1 1 1 
1 1 1 1 1 1 1 1 1 
1 1 1 1 1 1 1 1 1 
1 1 1 1 1 1 1 1 1 
1 1 1 1 1 1 1 1 1 
1 1 1 1 1 1 1 1 1 
1 1 1 1 1 1 1 1 1 
1 1 1 1 1 1 1 1 1 
1 1 1 1 1 1 1 1 1 
1 1 1 1 1 1 1 1 1 
1 1 1 1 1 1 1 1 1 
1 1 1 1 1 1 1 1 1 
1 1 1 1 1 1 1 1 1 
1 1 1 1 1 1 1 1 1 
1 1 1 1 1 1 1 1 1 
1 1 1 1 1 1 1 1 1 
1 1 1 1 1 1 1 1 1 
1 1 1 1 1 1 1 1 1 
1 1 1 1 1 1 1 1 1 
1 1 1 1 1 1 1 1 1 
1 1 1 1 1 1 1 1 1 
1 1 1 1 1 1 1 1 1 
1 1 1 1 1 1 1 1 1 
1 1 1 1 1 1 1 1 1 
1 1 1 1 1 1 1 1 1 
1 1 1 1 1 1 1 1 1 
1 1 1 1 1 1 1 1 1 
1 1 1 1 1 1 1 1 1 
1 1 1 1 1 1 1 1 1 
1 1 1 1 1 1 1 1 1 
1 1 1 1 1 1 1 1 1 
1 1 1 1 1 1 1 1 1 
1 1 1 1 1 1 1 1 1 
1 1 1 1 1 1 1 1 1 
1 1 1 1 1 1 1 1 1 
1 1 1 1 1 1 1 1 1 
1 1 1 1 1 1 1 1 1 
1 1 1 1 1 1 1 1 1 
1 1 1 1 1 1 1 1 1 
1 1 1 1 1 1 1 1 1 
1 1 1 1 1 1 1 1 1 
1 1 1 1 1 1 1 1 1 
1 1 1 1 1 1 1 1 1 
1 1 1 1 1 1 1 1 1 
1 1 1 1 1 1 1 1 1 
1 1 1 1 1 1 1 1 1 
1 1 1 1 1 1 1 1 1 
1 1 1 1 1 1 1 1 1 
1 1 1 1 1 1 1 1 1 
1 1 1 1 1 1 1 1 1 
1 1 1 1 1 1 1 1 1 
1 1 1 1 1 1 1 1 1 
1 1 1 1 1 1 1 1 1 
1 1 1 1 1 1 1 1 1 
1 1 1 1 1 1 1 1 1 
1 1 1 1 1 1 1 1 1 
1 1 1 1 1 1 1 1 1 
1 1 1 1 1 1 1 1 1 
1 1 1 1 1 1 1 1 1 
1 1 1 1 1 1 1 1 1 
1 1 1 1 1 1 1 1 1 
1 1 1 1 1 1 1 1 1 
1 1 1 1 1 1 1 1 1 
1 1 1 1 1 1 1 1 1 
1 1 1 1 1 1 1 1 1 
1 1 1 1 1 1 1 1 1 
1 1 1 1 1 1 1 1 1 
1 1 1 1 1 1 1 1 1 
1 1 1 1 1 1 1 1 1 
1 1 1 1 1 1 1 1 1 
1 1 1 1 1 1 1 1 1 
1 1 1 1 1 1 1 1 1 
1 1 1 1 1 1 1 1 1 
1 1 1 1 1 1 1 1 1 
1 1 1 1 1 1 1 1 1 
1 1 1 1 1 1 1 1 1 
1 1 1 1 1 1 1 1 1 
1 1 1 1 1 1 1 1 1 
1 1 1 1 1 1 1 1 1 
1 1 1 1 1 1 1 1 1 
1 1 1 1 1 1 1 1 1 
1 1 1 1 1 1 1 1 1 
1 1 1 1 1 1 1 1 1 
1 1 1 1 1 1 1 1 1 
1 1 1 1 1 1 1 1 1 
1 1 1 1 1 1 1 1 1 
1 1 1 1 1 1 1 1 1 
1 1 1 1 1 1 1 1 1 
1 1 1 1 1 1 1 1 1 
1 1 1 1 1 1 1 1 1 
1 1 1 1 1 1 1 1 1 
1 1 1 1 1 1 1 1 1 
1 1 1 1 1 1 1 1 1 
1 1 1 1 1 1 1 1 1 
1 1 1 1 1 1 1 1 1 
1 1 1 1 1 1 1 1 1 
1 1 1 1 1 1 1 1 1 
1 1 1 1 1 1 1 1 1 
1 1 1 1 1 1 1 1 1 
1 1 1 1 1 1 1 1 1 
1 1 1 1 1 1 1 1 1 
1 1 1 1 1 1 1 1 1 
1 1 1 1 1 1 1 1 1 
1 1 1 1 1 1 1 1 1 
1 1 1 1 1 1 1 1 1 
1 1 1 1 1 1 1 1 1 
1 1 1 1 1 1 1 1 1 
1 1 1 1 1 1 1 1 1 
1 1 1 1 1 1 1 1 1 
1 1 1 1 1 1 1 1 1 
1 1 1 1 1 1 1 1 1 
1 1 1 1 1 1 1 1 1 
1 1 1 1 1 1 1 1 1 
1 1 1 1 1 1 1 1 1 
1 1 1 1 1 1 1 1 1 
1 1 1 1 1 1 1 1 1 
1 1 1 1 1 1 1 1 1 
1 1 1 1 1 1 1 1 1 
1 1 1 1 1 1 1 1 1 
1 1 1 1 1 1 1 1 1 
1 1 1 1 1 1 1 1 1 
1 1 1 1 1 1 1 1 1 
1 1 1 1 1 1 1 1 1 
1 1 1 1 1 1 1 1 1 
1 1 1 1 1 1 1 1 1 
1 1 1 1 1 1 1 1 1 
1 1 1 1 1 1 1 1 1 
1 1 1 1 1 1 1 1 1 
1 1 1 1 1 1 1 1 1 
1 1 1 1 1 1 1 1 1 
1 1 1 1 1 1 1 1 1 
1 1 1 1 1 1 1 1 1 
1 1 1 1 1 1 1 1 1 
1 1 1 1 1 1 1 1 1 
1 1 1 1 1 1 1 1 1 
1 1 1 1 1 1 1 1 1 
1 1 1 1 1 1 1 1 1 
1 1 1 1 1 1 1 1 1 
1 1 1 1 1 1 1 1 1 
1 1 1 1 1 1 1 1 1 
1 1 1 1 1 1 1 1 1 
1 1 1 1 1 1 1 1 1 
1 1 1 1 1 1 1 1 1 
1 1 1 1 1 1 1 1 1 
1 1 1 1 1 1 1 1 1 
1 1 1 1 1 1 1 1 1 
1 1 1 1 1 1 1 1 1 
1 1 1 1 1 1 1 1 1 
1 1 1 1 1 1 1 1 1 
1 1 1 1 1 1 1 1 1 
1 1 1 1 1 1 1 1 1 
1 1 1 1 1 1 1 1 1 
1 1 1 1 1 1 1 1 1 
1 1 1 1 1 1 1 1 1 
1 1 1 1 1 1 1 1 1 
1 1 1 1 1 1 1 1 1 
1 1 1 1 1 1 1 1 1 
1 1 1 1 1 1 1 1 1 
1 1 1 1 1 1 1 1 1 
1 1 1 1 1 1 1 1 1 
1 1 1 1 1 1 1 1 1 
1 1 1 1 1 1 1 1 1 
1 1 1 1 1 1 1 1 1 
1 1 1 1 1 1 1 1 1 
1 1 1 1 1 1 1 1 1 
1 1 1 1 1 1 1 1 1 
1 1 1 1 1 1 1 1 1 
1 1 1 1 1 1 1 1 1 
1 1 1 1 1 1 1 1 1 
1 1 1 1 1 1 1 1 1 
1 1 1 1 1 1 1 1 1 
1 1 1 1 1 1 1 1 1 
1 1 1 1 1 1 1 1 1 
1 1 1 1 1 1 1 1 1 
1 1 1 1 1 1 1 1 1 
1 1 1 1 1 1 1 1 1 
1 1 1 1 1 1 1 1 1 
1 1 1 1 1 1 1 1 1 
1 1 1 1 1 1 1 1 1 
1 1 1 1 1 1 1 1 1 
1 1 1 1 1 1 1 1 1 
1 1 1 1 1 1 1 1 1 
1 1 1 1 1 1 1 1 1 
1 1 1 1 1 1 1 1 1 
1 1 1 1 1 1 1 1 1 
1 1 1 1 1 1 1 1 1 
1 1 1 1 1 1 1 1 1 
1 1 1 1 1 1 1 1 1 
1 1 1 1 1 1 1 1 1 
1 1 1 1 1 1 1 1 1 
1 1 1 1 1 1 1 1 1 
1 1 1 1 1 1 1 1 1 
1 1 1 1 1 1 1 1 1 
1 1 1 1 1 1 1 1 1 
1 1 1 1 1 1 1 1 1 
1 1 1 1 1 1 1 1 1 
1 1 1 1 1 1 1 1 1 
1 1 1 1 1 1 1 1 1 
1 1 1 1 1 1 1 1 1 
1 1 1 1 1 1 1 1 1 
1 1 1 1 1 1 1 1 1 
1 1 1 1 1 1 1 1 1 
1 1 1 1 1 1 1 1 1 
1 1 1 1 1 1 1 1 1 
1 1 1 1 1 1 1 1 1 
1 1 1 1 1 1 1 1 1 
1 1 1 1 1 1 1 1 1 
1 1 1 1 1 1 1 1 1 
1 1 1 1 1 1 1 1 1 
1 1 1 1 1 1 1 1 1 
1 1 1 1 1 1 1 1 1 
1 1 1 1 1 1 1 1 1 
1 1 1 1 1 1 1 1 1 
1 1 1 1 1 1 1 1 1 
1 1 1 1 1 1 1 1 1 
1 1 1 1 1 1 1 1 1 
1 1 1 1 1 1 1 1 1 
1 1 1 1 1 1 1 1 1 
1 1 1 1 1 1 1 1 1 
1 1 1 1 1 1 1 1 1 
1 1 1 1 1 1 1 1 1 
1 1 1 1 1 1 1 1 1 
1 1 1 1 1 1 1 1 1 
1 1 1 1 1 1 1 1 1 
1 1 1 1 1 1 1 1 1 
1 1 1 1 1 1 1 1 1 
1 1 1 1 1 1 1 1 1 
1 1 1 1 1 1 1 1 1 
1 1 1 1 1 1 1 1 1 
1 1 1 1 1 1 1 1 1 
1 1 1 1 1 1 1 1 1 
1 1 1 1 1 1 1 1 1 
1 1 1 1 1 1 1 1 1 
1 1 1 1 1 1 1 1 1 
1 1 1 1 1 1 1 1 1 
1 1 1 1 1 1 1 1 1 
1 1 1 1 1 1 1 1 1 
1 1 1 1 1 1 1 1 1 
1 1 1 1 1 1 1 1 1 
1 1 1 1 1 1 1 1 1 
1 1 1 1 1 1 1 1 1 
1 1 1 1 1 1 1 1 1 
1 1 1 1 1 1 1 1 1 
1 1 1 1 1 1 1 1 1 
1 1 1 1 1 1 1 1 1 
1 1 1 1 1 1 1 1 1 
1 1 1 1 1 1 1 1 1 
1 1 1 1 1 1 1 1 1 
1 1 1 1 1 1 1 1 1 
1 1 1 1 1 1 1 1 1 
1 1 1 1 1 1 1 1 1 
1 1 1 1 1 1 1 1 1 
1 1 1 1 1 1 1 1 1 
1 1 1 1 1 1 1 1 1 
1 1 1 1 1 1 1 1 1 
1 1 1 1 1 1 1 1 1 
1 1 1 1 1 1 1 1 1 
1 1 1 1 1 1 1 1 1 
1 1 1 1 1 1 1 1 1 
1 1 1 1 1 1 1 1 1 
1 1 1 1 1 1 1 1 1 
1 1 1 1 1 1 1 1 1 
1 1 1 1 1 1 1 1 1 
1 1 1 1 1 1 1 1 1 
1 1 1 1 1 1 1 1 1 
1 1 1 1 1 1 1 1 1 
1 1 1 1 1 1 1 1 1 
1 1 1 1 1 1 1 1 1 
1 1 1 1 1 1 1 1 1 
1 1 1 1 1 1 1 1 1 
1 1 1 1 1 1 1 1 1 
1 1 1 1 1 1 1 1 1 
1 1 1 1 1 1 1 1 1 
1 1 1 1 1 1 1 1 1 
1 1 1 1 1 1 1 1 1 
1 1 1 1 1 1 1 1 1 
1 1 1 1 1 1 1 1 1 
1 1 1 1 1 1 1 1 1 
1 1 1 1 1 1 1 1 1 
1 1 1 1 1 1 1 1 1 
1 1 1 1 1 1 1 1 1 
1 1 1 1 1 1 1 1 1 
1 1 1 1 1 1 1 1 1 
1 1 1 1 1 1 1 1 1 
1 1 1 1 1 1 1 1 1 
1 1 1 1 1 1 1 1 1 
1 1 1 1 1 1 1 1 1 
1 1 1 1 1 1 1 1 1 
1 1 1 1 1 1 1 1 1 
1 1 1 1 1 1 1 1 1 
1 1 1 1 1 1 1 1 1 
1 1 1 1 1 1 1 1 1 
1 1 1 1 1 1 1 1 1 
1 1 1 1 1 1 1 1 1 
1 1 1 1 1 1 1 1 1 
1 1 1 1 1 1 1 1 1 
1 1 1 1 1 1 1 1 1 
1 1 1 1 1 1 1 1 1 
1 1 1 1 1 1 1 1 1 
1 1 1 1 1 1 1 1 1 
1 1 1 1 1 1 1 1 1 
1 1 1 1 1 1 1 1 1 
1 1 1 1 1 1 1 1 1 
1 1 1 1 1 1 1 1 1 
1 1 1 1 1 1 1 1 1 
1 1 1 1 1 1 1 1 1 
1 1 1 1 1 1 1 1 1 
1 1 1 1 1 1 1 1 1 
1 1 1 1 1 1 1 1 1 
1 1 1 1 1 1 1 1 1 
1 1 1 1 1 1 1 1 1 
1 1 1 1 1 1 1 1 1 
1 1 1 1 1 1 1 1 1 
1 1 1 1 1 1 1 1 1 
1 1 1 1 1 1 1 1 1 
1 1 1 1 1 1 1 1 1 
1 1 1 1 1 1 1 1 1 
1 1 1 1 1 1 1 1 1 
1 1 1 1 1 1 1 1 1 
1 1 1 1 1 1 1 1 1 
1 1 1 1 1 1 1 1 1 
1 1 1 1 1 1 1 1 1 
1 1 1 1 1 1 1 1 1 
1 1 1 1 1 1 1 1 1 
1 1 1 1 1 1 1 1 1 
1 1 1 1 1 1 1 1 1 
1 1 1 1 1 1 1 1 1 
1 1 1 1 1 1 1 1 1 
1 1 1 1 1 1 1 1 1 
1 1 1 1 1 1 1 1 1 
1 1 1 1 1 1 1 1 1 
1 1 1 1 1 1 1 1 1 
1 1 1 1 1 1 1 1 1 
1 1 1 1 1 1 1 1 1 
1 1 1 1 1 1 1 1 1 
1 1 1 1 1 1 1 1 1 
1 1 1 1 1 1 1 1 1 
1 1 1 1 1 1 1 1 1 
1 1 1 1 1 1 1 1 1 
1 1 1 1 1 1 1 1 1 
1 1 1 1 1 1 1 1 1 
1 1 1 1 1 1 1 1 1 
1 1 1 1 1 1 1 1 1 
1 1 1 1 1 1 1 1 1 
1 1 1 1 1 1 1 1 1 
1 1 1 1 1 1 1 1 1 
1 1 1 1 1 1 1 1 1 
1 1 1 1 1 1 1 1 1 
1 1 1 1 1 1 1 1 1 
1 1 1 1 1 1 1 1 1 
1 1 1 1 1 1 1 1 1 
1 1 1 1 1 1 1 1 1 
1 1 1 1 1 1 1 1 1 
1 1 1 1 1 1 1 1 1 
1 1 1 1 1 1 1 1 1 
1 1 1 1 1 1 1 1 1 
1 1 1 1 1 1 1 1 1 
1 1 1 1 1 1 1 1 1 
1 1 1 1 1 1 1 1 1 
1 1 1 1 1 1 1 1 1 
1 1 1 1 1 1 1 1 1 
1 1 1 1 1 1 1 1 1 
1 1 1 1 1 1 1 1 1 
1 1 1 1 1 1 1 1 1 
1 1 1 1 1 1 1 1 1 
1 1 1 1 1 1 1 1 1 
1 1 1 1 1 1 1 1 1 
1 1 1 1 1 1 1 1 1 
1 1 1 1 1 1 1 1 1 
1 1 1 1 1 1 1 1 1 
1 1 1 1 1 1 1 1 1 
1 1 1 1 1 1 1 1 1 
1 1 1 1 1 1 1 1 1 
1 1 1 1 1 1 1 1 1 
1 1 1 1 1 1 1 1 1 
1 1 1 1 1 1 1 1 1 
1 1 1 1 1 1 1 1 1 
1 1 1 1 1 1 1 1 1 
1 1 1 1 1 1 1 1 1 
1 1 1 1 1 1 1 1 1 
1 1 1 1 1 1 1 1 1 
1 1 1 1 1 1 1 1 1 
1 1 1 1 1 1 1 1 1 
1 1 1 1 1 1 1 1 1 
1 1 1 1 1 1 1 1 1 
1 1 1 1 1 1 1 1 1 
1 1 1 1 1 1 1 1 1 
1 1 1 1 1 1 1 1 1 
1 1 1 1 1 1 1 1 1 
1 1 1 1 1 1 1 1 1 
1 1 1 1 1 1 1 1 1 
1 1 1 1 1 1 1 1 1 
1 1 1 1 1 1 1 1 1 
1 1 1 1 1 1 1 1 1 
1 1 1 1 1 1 1 1 1 
1 1 1 1 1 1 1 1 1 
1 1 1 1 1 1 1 1 1 
1 1 1 1 1 1 1 1 1 
1 1 1 1 1 1 1 1 1 
1 1 1 1 1 1 1 1 1 
1 1 1 1 1 1 1 1 1 
1 1 1 1 1 1 1 1 1 
1 1 1 1 1 1 1 1 1 
1 1 1 1 1 1 1 1 1 
1 1 1 1 1 1 1 1 1 
1 1 1 1 1 1 1 1 1 
1 1 1 1 1 1 1 1 1 
1 1 1 1 1 1 1 1 1 
1 1 1 1 1 1 1 1 1 
1 1 1 1 1 1 1 1 1 
1 1 1 1 1 1 1 1 1 
1 1 1 1 1 1 1 1 1 
1 1 1 1 1 1 1 1 1 
1 1 1 1 1 1 1 1 1 
1 1 1 1 1 1 1 1 1 
1 1 1 1 1 1 1 1 1 
1 1 1 1 1 1 1 1 1 
1 1 1 1 1 1 1 1 1 
1 1 1 1 1 1 1 1 1 
1 1 1 1 1 1 1 1 1 
1 1 1 1 1 1 1 1 1 
1 1 1 1 1 1 1 1 1 
1 1 1 1 1 1 1 1 1 
1 1 1 1 1 1 1 1 1 
1 1 1 1 1 1 1 1 1 
1 1 1 1 1 1 1 1 1 
1 1 1 1 1 1 1 1 1 
1 1 1 1 1 1 1 1 1 
1 1 1 1 1 1 1 1 1 
1 1 1 1 1 1 1 1 1 
1 1 1 1 1 1 1 1 1 
1 1 1 1 1 1 1 1 1 
1 1 1 1 1 1 1 1 1 
1 1 1 1 1 1 1 1 1 
1 1 1 1 1 1 1 1 1 
1 1 1 1 1 1 1 1 1 
1 1 1 1 1 1 1 1 1 
1 1 1 1 1 1 1 1 1 
1 1 1 1 1 1 1 1 1 
1 1 1 1 1 1 1 1 1 
1 1 1 1 1 1 1 1 1 
1 1 1 1 1 1 1 1 1 
1 1 1 1 1 1 1 1 1 
1 1 1 1 1 1 1 1 1 
1 1 1 1 1 1 1 1 1 
1 1 1 1 1 1 1 1 1 
1 1 1 1 1 1 1 1 1 
1 1 1 1 1 1 1 1 1 
1 1 1 1 1 1 1 1 1 
1 1 1 1 1 1 1 1 1 
1 1 1 1 1 1 1 1 1 
1 1 1 1 1 1 1 1 1 
1 1 1 1 1 1 1 1 1 
1 1 1 1 1 1 1 1 1 
1 1 1 1 1 1 1 1 1 
1 1 1 1 1 1 1 1 1 
1 1 1 1 1 1 1 1 1 
1 1 1 1 1 1 1 1 1 
1 1 1 1 1 1 1 1 1 
1 1 1 1 1 1 1 1 1 
1 1 1 1 1 1 1 1 1 
1 1 1 1 1 1 1 1 1 
1 1 1 1 1 1 1 1 1 
1 1 1 1 1 1 1 1 1 
1 1 1 1 1 1 1 1 1 
1 1 1 1 1 1 1 1 1 
1 1 1 1 1 1 1 1 1 
1 1 1 1 1 1 1 1 1 
1 1 1 1 1 1 1 1 1 
1 1 1 1 1 1 1 1 1 
1 1 1 1 1 1 1 1 1 
1 1 1 1 1 1 1 1 1 
1 1 1 1 1 1 1 1 1 
1 1 1 1 1 1 1 1 1 
1 1 1 1 1 1 1 1 1 
1 1 1 1 1 1 1 1 1 
1 1 1 1 1 1 1 1 1 
1 1 1 1 1 1 1 1 1 
1 1 1 1 1 1 1 1 1 
1 1 1 1 1 1 1 1 1 
1 1 1 1 1 1 1 1 1 
1 1 1 1 1 1 1 1 1 
1 1 1 1 1 1 1 1 1 
1 1 1 1 1 1 1 1 1 
1 1 1 1 1 1 1 1 1 
1 1 1 1 1 1 1 1 1 
1 1 1 1 1 1 1 1 1 
1 1 1 1 1 1 1 
NORMALS normals float
0 0 -1 0 -0.702808 -0.711379 -0.999926 0 -0.0121942 
0.702808 0 -0.711379 0 0.702808 -0.711379 -0.00851905 -0.707081 -0.707081 
-0.00851905 -0.707081 -0.707081 -0.999855 -0.0120464 -0.0120464 0.0120464 -0.0120464 -0.999855 
0.0120464 -0.999855 -0.0120464 0.999855 -0.0120464 -0.0120464 -1 0 0 
0.707107 0 -0.707107 0.999927 0 -0.0120473 -0.00857052 0.702783 -0.711353 
-0.999927 0 -0.0120473 0.0120464 0.0120464 -0.999855 0.999855 0.0120464 -0.0120464 
0 0.0120473 -0.999927 -0.999851 0.0121933 -0.0121933 0.572685 0.579669 -0.579669 
0.57735 0.57735 -0.57735 0 0.999927 -0.0120473 -0.0120464 -0.0120464 -0.999855 
-0.00851905 -0.707081 -0.707081 -0.57735 -0.57735 -0.57735 0.0120473 0 -0.999927 
0.0121933 -0.999851 -0.0121933 0.999927 0 -0.0120473 -0.0120464 -0.0120464 -0.999855 
-0.57735 -0.57735 -0.57735 -0.57735 -0.57735 -0.57735 0.0120464 0.0120464 -0.999855 
0.707081 0.707081 -0.00851905 0.711353 0.702783 -0.00857052 -0.0120464 -0.0120464 -0.999855 
-0.57735 -0.57735 -0.57735 -0.57735 -0.57735 -0.57735 0.0120464 0.0120464 -0.999855 
0.707081 0.707081 -0.00851905 0.707081 0.707081 -0.00851905 -0.0120464 -0.0120464 -0.999855 
-0.57735 -0.57735 -0.57735 -0.57735 -0.57735 -0.57735 0.0120464 0.0120464 -0.999855 
0.707081 0.707081 -0.00851905 0.707081 0.707081 -0.00851905 -0.0120464 -0.0120464 -0.999855 
-0.57735 -0.57735 -0.57735 -0.57735 -0.57735 -0.57735 0.0120473 0 -0.999927 
0.711353 0.702783 -0.00857052 0.707081 0.707081 -0.00851905 -0.0120464 -0.0120464 -0.999855 
-0.57735 -0.57735 -0.57735 -0.57735 -0.57735 -0.57735 0 0 -1 
0.0120473 0 -0.999927 0.999927 0 -0.0120473 -0.0120464 -0.0120464 -0.999855 
-0.00851905 -0.707081 -0.707081 -0.57735 -0.57735 -0.57735 0 -0.0120473 -0.999927 
0 -0.707107 -0.707107 0 -0.0120473 -0.999927 -0.572685 -0.579669 -0.579669 
0 0 -1 0 0 -1 0.0120464 0.0120464 -0.999855 
0.999855 0.0120464 -0.0120464 -0.0120464 -0.0120464 -0.999855 -0.57735 -0.57735 -0.57735 
-0.57735 -0.57735 -0.57735 0 0 -1 0 0 -1 
0 0.0120473 -0.999927 0 0.0120473 -0.999927 0.0120464 0.0120464 -0.999855 
0.707081 0.707081 -0.00851905 0.707081 0.707081 -0.00851905 -0.0120464 -0.0120464 -0.999855 
-0.0120464 -0.999855 -0.0120464 -0.707081 -0.707081 -0.00851905 0 -0.0120473 -0.999927 
0 -0.707107 -0.707107 0 -0.0120473 -0.999927 -0.572685 -0.579669 -0.579669 
0 0 -1 0 0 -1 0.0120464 0.0120464 -0.999855 
0.707081 0.707081 -0.00851905 0.702783 0.711353 -0.00857052 0 0.999927 -0.0120473 
0.0120464 0.999855 -0.0120464 -0.0120464 -0.0120464 -0.999855 -0.707081 -0.707081 -0.00851905 
-0.707081 -0.707081 -0.00851905 0 0 -1 0 0 -1 
0 0.0120473 -0.999927 0 0.0120473 -0.999927 0.0120464 0.0120464 -0.999855 
0.707081 0.707081 -0.00851905 0.707081 0.707081 -0.00851905 -0.0120464 -0.0120464 -0.999855 
-0.707081 -0.707081 -0.00851905 -0.999855 -0.0120464 -0.0120464 0 0 -1 
0 0 -1 0.0120464 0.0120464 -0.999855 0.707081 0.707081 -0.00851905 
0.702783 0.711353 -0.00857052 0 0.999927 -0.0120473 0.0120464 0.999855 -0.0120464 
-0.0120464 0.0120464 -0.999855 -0.707081 0.00851905 -0.707081 0 0.0120473 -0.999927 
0.0120464 0.0120464 -0.999855 0.707081 0.707081 -0.00851905 0.707081 0.707081 -0.00851905 
-0.0120464 0.999855 -0.0120464 0 0.999927 -0.0120473 0.0120464 0.999855 -0.0120464 
0 -0.711379 -0.702808 0 -1 0 -0.999926 -0.0121942 0 
0.702808 -0.711379 0 -1 0 0 0.707107 -0.707107 0 
0.999927 -0.0120473 0 -1 0 0 1 0 0 
-1 0 0 0.711379 0 -0.702808 -0.711353 0.00857052 -0.702783 
0.57735 0.57735 -0.57735 0.707081 0.00851905 -0.707081 -0.00857052 0.711353 -0.702783 
0.00851905 0.707081 -0.707081 -0.0120464 -0.0120464 -0.999855 -0.00851905 -0.707081 -0.707081 
-0.707081 -0.00851905 -0.707081 0.00851905 -0.707081 -0.707081 0.00851905 -0.707081 -0.707081 
0.57735 -0.57735 -0.57735 -0.579669 -0.572685 -0.579669 -0.579669 -0.572685 -0.579669 
0.582016 -0.575003 -0.575003 1 0 0 -0.0120464 -0.0120464 -0.999855 
-0.00851905 -0.707081 -0.707081 -0.707081 -0.00851905 -0.707081 -0.572685 -0.579669 -0.579669 
-0.572685 -0.579669 -0.579669 0.707107 0.707107 0 0.711379 0.702808 0 
-0.579669 -0.572685 -0.579669 -0.579669 -0.572685 -0.579669 0.707107 0.707107 0 
0.707107 0.707107 0 -0.0120464 -0.0120464 -0.999855 -0.00851905 -0.707081 -0.707081 
-0.707081 -0.00851905 -0.707081 -0.572685 -0.579669 -0.579669 -0.572685 -0.579669 -0.579669 
0.707107 0.707107 0 0.707107 0.707107 0 -0.579669 -0.572685 -0.579669 
-0.579669 -0.572685 -0.579669 0.711379 0.702808 0 0.707107 0.707107 0 
-0.00851905 -0.707081 -0.707081 -0.00851905 -0.707081 -0.707081 -0.57735 -0.57735 -0.57735 
0 -0.707107 -0.707107 0 -0.707107 -0.707107 -0.572685 -0.579669 -0.579669 
-0.572685 -0.579669 -0.579669 1 0 0 -0.57735 -0.57735 -0.57735 
-0.57735 -0.57735 -0.57735 -0.57735 -0.57735 -0.57735 0.999927 0.0120473 0 
-0.00851905 -0.707081 -0.707081 -0.0120464 -0.999855 -0.0120464 -0.707081 -0.707081 -0.00851905 
-0.572685 -0.579669 -0.579669 -0.572685 -0.579669 -0.579669 0.707107 0.707107 0 
0.707107 0.707107 0 -0.707107 -0.707107 0 -0.707107 -0.707107 0 
0.707107 0.707107 0 0.702808 0.711379 0 0 1 0 
0.0120473 0.999927 0 -0.707107 -0.707107 0 -0.707107 -0.707107 0 
0.707107 0.707107 0 0.707107 0.707107 0 -0.707107 -0.707107 0 
-0.707107 -0.707107 0 0.579669 0.579669 -0.572685 0.575003 0.582016 -0.575003 
0 0.711379 -0.702808 0.0120473 0.999927 0 -0.707107 0 -0.707107 
-0.711353 -0.702783 -0.00857052 -0.999927 0 -0.0120473 0.579669 0.579669 -0.572685 
0.579669 0.579669 -0.572685 -0.00857052 0.702783 -0.711353 0 0.711379 -0.702808 
0 0.711379 -0.702808 0.0120473 0.999927 0 0 -0.711379 0.702808 
-0.00857052 -0.711353 0.702783 -0.999927 -0.0120473 0 0.0120464 -0.999855 0.0120464 
0.999855 -0.0120464 0.0120464 -1 0 0 0.711353 -0.702783 0.00857052 
-0.711379 -0.702808 0 0.702783 -0.711353 -0.00857052 0.702783 -0.00857052 -0.711353 
0 -0.0120473 -0.999927 0 -0.999927 -0.0120473 0 -0.0120473 -0.999927 
0 -0.999927 -0.0120473 0.0121933 -0.0121933 -0.999851 0.0120473 -0.999927 0 
0.999927 -0.0120473 0 -0.0120464 -0.0120464 -0.999855 -0.0120464 -0.999855 -0.0120464 
-0.707081 -0.707081 -0.00851905 0.0121933 -0.0121933 -0.999851 0.0120473 -0.999927 0 
0.999927 -0.0120473 0 -0.711379 0 -0.702808 -0.711379 -0.702808 0 
-1 0 0 0.702808 0 -0.711379 0 0 -1 
0 0 -1 0.0121942 0 -0.999926 0.711379 -0.702808 0 
-0.0121933 -0.0121933 -0.999851 -0.707107 -0.707107 0 -0.707107 -0.707107 0 
0 0 -1 0.0121942 0 -0.999926 1 0 0 
-0.711379 0.702808 0 -0.00857052 0.702783 -0.711353 -0.711353 0.702783 -0.00857052 
0 0.702808 -0.711379 0 0 -1 0 0 -1 
0 0 -1 0 0 -1 0.702783 -0.711353 -0.00857052 
0 -0.0120473 -0.999927 0 -0.0120473 -0.999927 0 -0.999927 -0.0120473 
0 -0.0120473 -0.999927 -0.702783 -0.711353 -0.00857052 0 0 -1 
0 0 -1 0.0121942 0 -0.999926 1 0 0 
-0.0120464 0.0120464 -0.999855 -0.999855 0.0120464 -0.0120464 0 0.0120473 -0.999927 
0 0 -1 0 0 -1 0 0 -1 
0 0 -1 0 0 -1 0 0 -1 
0 0 -1 0 0 -1 0 0 -1 
0.0120473 0 -0.999927 0.999927 0 -0.0120473 -0.0120464 0.999855 -0.0120464 
-0.572685 0.579669 -0.579669 -0.579669 0.572685 -0.579669 -0.0120473 0 -0.999927 
0 0 -1 0 0 -1 0 0 -1 
0 0 -1 0 0 -1 0 0 -1 
0 0 -1 0 0 -1 0.0120473 0 -0.999927 
0.999927 0 -0.0120473 -0.0120473 0 -0.999927 -0.707107 0 -0.707107 
0 0 -1 0 0 -1 0 0 -1 
0 0 -1 0 0 -1 0 0 -1 
0 0 -1 0 0 -1 0.0120473 0 -0.999927 
0.999927 0 -0.0120473 -0.0120473 0 -0.999927 -0.707107 0 -0.707107 
0 0 -1 0 0 -1 0 0 -1 
0 0 -1 0 0 -1 0 0 -1 
0 0 -1 0 0 -1 0.0120473 0 -0.999927 
0.999927 0 -0.0120473 -0.0120473 0 -0.999927 -0.707107 0 -0.707107 
0 0 -1 0 0 -1 0 0 -1 
0 0 -1 0 0 -1 0 0 -1 
0 0 -1 0 0 -1 0.0120473 0 -0.999927 
0.999927 0 -0.0120473 -0.0120473 0 -0.999927 -0.707107 0 -0.707107 
0 0 -1 0 0 -1 0 0 -1 
0 0 -1 0 0 -1 0 0 -1 
0 0 -1 0 0 -1 0.0120473 0 -0.999927 
0.999927 0 -0.0120473 -0.0120464 0.0120464 -0.999855 -0.707081 0.00851905 -0.707081 
0 0.0120473 -0.999927 0 0 -1 0 0 -1 
0 0 -1 0 0 -1 0 0 -1 
0 0 -1 0 0 -1 0.0120473 0 -0.999927 
0.999927 0 -0.0120473 -0.0120464 0.999855 -0.0120464 -0.702783 0.00857052 -0.711353 
-0.707107 0 -0.707107 -0.0120473 0 -0.999927 0 0 -1 
0 0 -1 0 0 -1 0 0 -1 
0 -0.702808 -0.711379 0 -0.702808 -0.711379 0.0120473 0 -0.999927 
0.999927 0 -0.0120473 -0.0120464 -0.0120464 -0.999855 -0.707081 -0.00851905 -0.707081 
-0.57735 -0.57735 -0.57735 0 0 -1 0 0 -1 
0 0 -1 0 0 -1 -0.702808 0 -0.711379 
0.582016 -0.575003 -0.575003 1 0 0 -0.0120464 -0.0120464 -0.999855 
-0.57735 -0.57735 -0.57735 -0.707081 -0.00851905 -0.707081 0 0 -1 
0 0 -1 0 0 -1 0 0 -1 
0 -0.702808 -0.711379 -0.575003 -0.575003 -0.582016 0.999855 0.0120464 0.0120464 