# vtk DataFile Version 3.0
vtk output
ASCII
DATASET POLYDATA
POINTS 3756 float
56 126 26.0115 56 125.011 27 55.0115 126 27 
56.9885 126 27 56 127 26.0115 55.0115 127 27 
57 126.011 27 57 127 26.0115 57.9885 127 27 
56 127.989 27 57 127.989 27 53 126 27.0115 
53 125.011 28 52.0115 126 28 54 126 27.0115 
54 125.011 28 55 126 27.0115 55 125.011 28 
56 125.011 28 57 126 27.0115 57 125.011 28 
58 126 27.0115 58 125.011 28 58.9885 126 28 
52 127 27.0115 52 126.011 28 51.0115 127 28 
53 127 27.0115 54 127 27.0115 55 127 27.0115 
58 127 27.0115 58.9885 127 28 51 128 27.0115 
51 127.011 28 50.0115 128 28 52 128 27.0115 
53 128 27.0115 54 128 27.0115 55 128 27.0115 
56 128 27.0115 57 128 27.0115 58 128 27.0115 
58.9885 128 28 51 129 27.0115 50.0115 129 28 
52 129 27.0115 53 129 27.0115 54 129 27.0115 
55 129 27.0115 56 129 27.0115 57 129 27.0115 
58 129 27.0115 58.9885 129 28 51 130 27.0115 
50.0115 130 28 52 130 27.0115 53 130 27.0115 
54 130 27.0115 55 130 27.0115 56 130 27.0115 
57 130 27.0115 58 130 27.0115 59 129.011 28 
59 130 27.0115 60 130 27.0115 60 129.011 28 
60.9885 130 28 50 131 27.0115 50 130.011 28 
49.0115 131 28 51 131 27.0115 52 131 27.0115 
53 131 27.0115 54 131 27.0115 55 131 27.0115 
56 131 27.0115 57 131 27.0115 58 131 27.0115 
59 131 27.0115 60 131 27.0115 60.9885 131 28 
49 132 27.0115 49 131.011 28 48.0115 132 28 
50 132 27.0115 51 132 27.0115 52 132 27.0115 
53 132 27.0115 54 132 27.0115 55 132 27.0115 
56 132 27.0115 57 132 27.0115 58 132 27.0115 
59 132 27.0115 60 132 27.0115 60.9885 132 28 
49 133 27.0115 48.0115 133 28 50 133 27.0115 
51 133 27.0115 52 133 27.0115 53 133 27.0115 
54 133 27.0115 55 133 27.0115 56 133 27.0115 
57 133 27.0115 58 133 27.0115 59 133 27.0115 
60 133 27.0115 60.9885 133 28 49 134 27.0115 
48.0115 134 28 50 134 27.0115 51 134 27.0115 
52 134 27.0115 53 134 27.0115 54 134 27.0115 
55 134 27.0115 56 134 27.0115 57 134 27.0115 
58 134 27.0115 59 134 27.0115 60 134 27.0115 
60.9885 134 28 49 135 27.0115 48.0115 135 28 
50 135 27.0115 51 135 27.0115 52 135 27.0115 
53 135 27.0115 54 135 27.0115 55 135 27.0115 
56 135 27.0115 57 135 27.0115 58 135 27.0115 
59 135 27.0115 60 135 27.0115 60.9885 135 28 
49 135.989 28 50 135.989 28 50.0115 136 28 
51 136 27.0115 52 136 27.0115 53 136 27.0115 
54 136 27.0115 55 136 27.0115 56 136 27.0115 
57 136 27.0115 58 136 27.0115 59 136 27.0115 
60 136 27.0115 60.9885 136 28 51 137 27.0115 
50.0115 137 28 52 137 27.0115 53 137 27.0115 
54 137 27.0115 55 137 27.0115 56 137 27.0115 
57 137 27.0115 58 137 27.0115 59 137 27.0115 
60 137 27.0115 60.9885 137 28 51 137.989 28 
52 137.989 28 52.0115 138 28 53 138 27.0115 
54 138 27.0115 55 138 27.0115 56 138 27.0115 
57 138 27.0115 58 138 27.0115 59 138 27.0115 
60 138 27.0115 60.9885 138 28 53 139 27.0115 
52.0115 139 28 54 139 27.0115 55 139 27.0115 
56 139 27.0115 57 139 27.0115 58 139 27.0115 
59 139 27.0115 59.9885 139 28 60 138.989 28 
53 139.989 28 54 139.989 28 54.0115 140 28 
55 140 27.0115 56 140 27.0115 56.9885 140 28 
57 139.989 28 58 139.989 28 59 139.989 28 
55 141 27.0115 54.0115 141 28 55.9885 141 28 
56 140.989 28 55 141.989 28 53 125.011 29 
52.0115 126 29 54 125.011 29 55 125.011 29 
56 125.011 29 57 125.011 29 58 125.011 29 
58.9885 126 29 52 127 28.9885 52.0115 127 29 
58 127 28.9885 57.9885 127 29 58 126.989 29 
51 127.011 29 50.0115 128 29 52 127.011 29 
58 128 28.9885 57.9885 128 29 50.0115 129 29 
58 128.011 29 58.9885 129 29 50.0115 130 29 
59 129.011 29 60 129.011 29 60.9885 130 29 
50 131 28.9885 50.0115 131 29 60.9885 131 29 
49 131.011 29 48.0115 132 29 50 131.011 29 
60.9885 132 29 48.0115 133 29 60.9885 133 29 
48.0115 134 29 60.9885 134 29 49 134.989 29 
49 135 28.9885 50 134.989 29 50 135 28.9885 
50.0115 135 29 60.9885 135 29 50.0115 136 29 
60.9885 136 29 51 136.989 29 51 137 28.9885 
52 136.989 29 52 137 28.9885 52.0115 137 29 
61 136.011 29 61 137 28.0115 62 137 28.0115 
62 136.011 29 62.9885 137 29 70 137 28.0115 
70 136.011 29 69.0115 137 29 71 137 28.0115 
71 136.011 29 71.9885 137 29 52.0115 138 29 
60.9885 138 29 61 137.989 29 61.0115 138 29 
62 138 28.0115 62.9885 138 29 70 138 28.0115 
69.0115 138 29 70.9885 138 29 71 137.989 29 
53 138.989 29 53 139 28.9885 53.0115 139 29 
60 139 28.0115 60.9885 139 29 62 139 28.0115 
61.0115 139 29 63 138.011 29 63 139 28.0115 
64 139 28.0115 64 138.011 29 64.9885 139 29 
68 139 28.0115 68 138.011 29 67.0115 139 29 
69 139 28.0115 69 138.011 29 70 139 28.0115 
70.9885 139 29 53.0115 140 29 54 140 28.0115 
56.9885 140 29 57 139.989 29 58 139.989 29 
59 139.989 29 60 139.989 29 62 139.989 29 
63 139.989 29 63.0115 140 29 64 140 28.0115 
64.9885 140 29 68 140 28.0115 67.0115 140 29 
68.9885 140 29 69 139.989 29 70 139.989 29 
54 141 28.0115 53.0115 141 29 56 141 28.0115 
56.9885 141 29 64 141 28.0115 63.0115 141 29 
65 140.011 29 65 141 28.0115 66 141 28.0115 
66 140.011 29 67 141 28.0115 67 140.011 29 
68 141 28.0115 68.9885 141 29 54 141.989 29 
55 141.989 29 56 141.989 29 64 141.989 29 
65 141.989 29 66 141.989 29 67 141.989 29 
68 141.989 29 53 126 29.9885 54 126 29.9885 
55 126 29.9885 56 126 29.9885 56.0115 126 30 
57 125.011 30 58 125.011 30 58.9885 126 30 
53 127 29.9885 54 127 29.9885 55 127 29.9885 
56 127 29.9885 56.0115 127 30 57.9885 127 30 
58 126.989 30 51 128 29.9885 52 128 29.9885 
53 128 29.9885 54 128 29.9885 55 128 29.9885 
56 128 29.9885 57 127.989 30 57 128 29.9885 
51 129 29.9885 52 129 29.9885 53 129 29.9885 
54 129 29.9885 55 129 29.9885 56 129 29.9885 
57 129 29.9885 58 129 29.9885 51 130 29.9885 
52 130 29.9885 53 130 29.9885 54 130 29.9885 
55 130 29.9885 56 130 29.9885 57 130 29.9885 
58 130 29.9885 59 129.011 30 58.0115 130 30 
60 129.011 30 60.9885 130 30 51 131 29.9885 
52 131 29.9885 53 131 29.9885 54 131 29.9885 
55 131 29.9885 56 131 29.9885 57 131 29.9885 
58 131 29.9885 58.0115 131 30 60.9885 131 30 
49 132 29.9885 50 132 29.9885 51 132 29.9885 
52 132 29.9885 53 132 29.9885 54 132 29.9885 
55 132 29.9885 56 132 29.9885 57 132 29.9885 
58 132 29.9885 58.0115 132 30 60.9885 132 30 
49 133 29.9885 50 133 29.9885 51 133 29.9885 
52 133 29.9885 53 133 29.9885 54 133 29.9885 
55 133 29.9885 56 133 29.9885 57 133 29.9885 
58 133 29.9885 58.0115 133 30 60.9885 133 30 
49 134 29.9885 50 134 29.9885 51 134 29.9885 
52 134 29.9885 53 134 29.9885 54 134 29.9885 
55 134 29.9885 56 134 29.9885 57 134 29.9885 
58 134 29.9885 58.0115 134 30 60.9885 134 30 
67 134 29.0115 67 133.011 30 66.0115 134 30 
68 134 29.0115 68 133.011 30 69 134 29.0115 
69 133.011 30 70 134 29.0115 70 133.011 30 
71 134 29.0115 71 133.011 30 72 134 29.0115 
72 133.011 30 72.9885 134 30 51 135 29.9885 
52 135 29.9885 53 135 29.9885 54 135 29.9885 
55 135 29.9885 56 135 29.9885 57 135 29.9885 
58 135 29.9885 58.0115 135 30 60.9885 135 30 
66 135 29.0115 66 134.011 30 65.0115 135 30 
67 135 29.0115 68 135 29.0115 69 135 29.0115 
70 135 29.0115 71 135 29.0115 72 135 29.0115 
72.9885 135 30 51 136 29.9885 52 136 29.9885 
53 136 29.9885 54 136 29.9885 55 136 29.9885 
56 136 29.9885 57 136 29.9885 58 136 29.9885 
58.0115 136 30 61 135.011 30 61 136 29.0115 
62 136 29.0115 62 135.011 30 63 136 29.0115 
63 135.011 30 64 136 29.0115 64 135.011 30 
65 136 29.0115 65 135.011 30 66 136 29.0115 
67 136 29.0115 68 136 29.0115 69 136 29.0115 
70 136 29.0115 71 136 29.0115 72 136 29.0115 
72.9885 136 30 53 137 29.9885 54 137 29.9885 
55 137 29.9885 56 137 29.9885 57 137 29.9885 
57.0115 137 30 58 136.011 30 63 137 29.0115 
64 137 29.0115 65 137 29.0115 66 137 29.0115 
67 137 29.0115 68 137 29.0115 69 137 29.0115 
72 137 29.0115 72.9885 137 30 53 138 29.9885 
54 138 29.9885 55 138 29.9885 56 138 29.9885 
56.0115 138 30 57 137.011 30 61 138 29.0115 
63 138 29.0115 64 138 29.0115 65 138 29.0115 
66 138 29.0115 67 138 29.0115 68 138 29.0115 
69 138 29.0115 71 138 29.0115 72 138 29.0115 
72.9885 138 30 54 139 29.9885 55 139 29.9885 
55.0115 139 30 56 138.011 30 61 139 29.0115 
65 139 29.0115 66 139 29.0115 67 139 29.0115 
71 139 29.0115 72 139 29.0115 72.9885 139 30 
49 140 29.0115 49 139.011 30 48.0115 140 30 
50 140 29.0115 50 139.011 30 50.9885 140 30 
54 140 29.9885 54.0115 140 30 55 139.011 30 
57 140 29.0115 58 140 29.0115 59 140 29.0115 
60 140 29.0115 61 140 29.0115 62 140 29.0115 
63 140 29.0115 65 140 29.0115 66 140 29.0115 
67 140 29.0115 69 140 29.0115 70 140 29.0115 
71 140 29.0115 72 140 29.0115 72.9885 140 30 
49 141 29.0115 48.0115 141 30 50 141 29.0115 
50.9885 141 30 54 140.011 30 53.0115 141 30 
57 141 29.0115 58 141 29.0115 59 141 29.0115 
60 141 29.0115 61 141 29.0115 62 141 29.0115 
63 141 29.0115 69 141 29.0115 70 141 29.0115 
71 141 29.0115 72 141 29.0115 72.9885 141 30 
49 142 29.0115 48.0115 142 30 50 142 29.0115 
51 141.011 30 51 142 29.0115 52 142 29.0115 
52 141.011 30 53 142 29.0115 53 141.011 30 
54 142 29.0115 55 142 29.0115 56 142 29.0115 
57 142 29.0115 58 142 29.0115 59 142 29.0115 
60 142 29.0115 61 142 29.0115 62 142 29.0115 
63 142 29.0115 64 142 29.0115 65 142 29.0115 
66 142 29.0115 67 142 29.0115 68 142 29.0115 
69 142 29.0115 70 142 29.0115 71 142 29.0115 
72 142 29.0115 72.9885 142 30 49 143 29.0115 
48.0115 143 30 50 143 29.0115 51 143 29.0115 
52 143 29.0115 53 143 29.0115 54 143 29.0115 
55 143 29.0115 56 143 29.0115 57 143 29.0115 
58 143 29.0115 59 143 29.0115 60 143 29.0115 
61 143 29.0115 62 143 29.0115 63 143 29.0115 
64 143 29.0115 65 143 29.0115 66 143 29.0115 
67 143 29.0115 68 143 29.0115 69 143 29.0115 
70 143 29.0115 71 143 29.0115 71.9885 143 30 
72 142.989 30 49 144 29.0115 48.0115 144 30 
50 144 29.0115 51 144 29.0115 52 144 29.0115 
53 144 29.0115 54 144 29.0115 55 144 29.0115 
56 144 29.0115 57 144 29.0115 58 144 29.0115 
59 144 29.0115 60 144 29.0115 60.9885 144 30 
61 143.989 30 62 143.989 30 63 143.989 30 
64 143.989 30 65 143.989 30 66 143.989 30 
67 143.989 30 68 143.989 30 69 143.989 30 
70 143.989 30 71 143.989 30 49 145 29.0115 
48.0115 145 30 50 145 29.0115 51 145 29.0115 
52 145 29.0115 53 145 29.0115 54 145 29.0115 
55 145 29.0115 56 145 29.0115 57 145 29.0115 
[...]
POINT_DATA 3756
SCALARS scalars float
LOOKUP_TABLE default
1 1 1 1 1 1 1 1 1 
1 1 1 1 1 1 1 1 1 
1 1 1 1 1 1 1 1 1 
1 1 1 1 1 1 1 1 1 
1 1 1 1 1 1 1 1 1 
1 1 1 1 1 1 1 1 1 
1 1 1 1 1 1 1 1 1 
1 1 1 1 1 1 1 1 1 
1 1 1 1 1 1 1 1 1 
1 1 1 1 1 1 1 1 1 
1 1 1 1 1 1 1 1 1 
1 1 1 1 1 1 1 1 1 
1 1 1 1 1 1 1 1 1 
1 1 1 1 1 1 1 1 1 
1 1 1 1 1 1 1 1 1 
1 1 1 1 1 1 1 1 1 
1 1 1 1 1 1 1 1 1 
1 1 1 1 1 1 1 1 1 
1 1 1 1 1 1 1 1 1 
1 1 1 1 1 1 1 1 1 
1 1 1 1 1 1 1 1 1 
1 1 1 1 1 1 1 1 1 
1 1 1 1 1 1 1 1 1 
1 1 1 1 1 1 1 1 1 
1 1 1 1 1 1 1 1 1 
1 1 1 1 1 1 1 1 1 
1 1 1 1 1 1 1 1 1 
1 1 1 1 1 1 1 1 1 
1 1 1 1 1 1 1 1 1 
1 1 1 1 1 1 1 1 1 
1 1 1 1 1 1 1 1 1 
1 1 1 1 1 1 1 1 1 
1 1 1 1 1 1 1 1 1 
1 1 1 1 1 1 1 1 1 
1 1 1 1 1 1 1 1 1 
1 1 1 1 1 1 1 1 1 
1 1 1 1 1 1 1 1 1 
1 1 1 1 1 1 1 1 1 
1 1 1 1 1 1 1 1 1 
1 1 1 1 1 1 1 1 1 
1 1 1 1 1 1 1 1 1 
1 1 1 1 1 1 1 1 1 
1 1 1 1 1 1 1 1 1 
1 1 1 1 1 1 1 1 1 
1 1 1 1 1 1 1 1 1 
1 1 1 1 1 1 1 1 1 
1 1 1 1 1 1 1 1 1 
1 1 1 1 1 1 1 1 1 
1 1 1 1 1 1 1 1 1 
1 1 1 1 1 1 1 1 1 
1 1 1 1 1 1 1 1 1 
1 1 1 1 1 1 1 1 1 
1 1 1 1 1 1 1 1 1 
1 1 1 1 1 1 1 1 1 
1 1 1 1 1 1 1 1 1 
1 1 1 1 1 1 1 1 1 
1 1 1 1 1 1 1 1 1 
1 1 1 1 1 1 1 1 1 
1 1 1 1 1 1 1 1 1 
1 1 1 1 1 1 1 1 1 
1 1 1 1 1 1 1 1 1 
1 1 1 1 1 1 1 1 1 
1 1 1 1 1 1 1 1 1 
1 1 1 1 1 1 1 1 1 
1 1 1 1 1 1 1 1 1 
1 1 1 1 1 1 1 1 1 
1 1 1 1 1 1 1 1 1 
1 1 1 1 1 1 1 1 1 
1 1 1 1 1 1 1 1 1 
1 1 1 1 1 1 1 1 1 
1 1 1 1 1 1 1 1 1 
1 1 1 1 1 1 1 1 1 
1 1 1 1 1 1 1 1 1 
1 1 1 1 1 1 1 1 1 
1 1 1 1 1 1 1 1 1 
1 1 1 1 1 1 1 1 1 
1 1 1 1 1 1 1 1 1 
1 1 1 1 1 1 1 1 1 
1 1 1 1 1 1 1 1 1 
1 1 1 1 1 1 1 1 1 
1 1 1 1 1 1 1 1 1 
1 1 1 1 1 1 1 1 1 
1 1 1 1 1 1 1 1 1 
1 1 1 1 1 1 1 1 1 
1 1 1 1 1 1 1 1 1 
1 1 1 1 1 1 1 1 1 
1 1 1 1 1 1 1 1 1 
1 1 1 1 1 1 1 1 1 
1 1 1 1 1 1 1 1 1 
1 1 1 1 1 1 1 1 1 
1 1 1 1 1 1 1 1 1 
1 1 1 1 1 1 1 1 1 
1 1 1 1 1 1 1 1 1 
1 1 1 1 1 1 1 1 1 
1 1 1 1 1 1 1 1 1 
1 1 1 1 1 1 1 1 1 
1 1 1 1 1 1 1 1 1 
1 1 1 1 1 1 1 1 1 
1 1 1 1 1 1 1 1 1 
1 1 1 1 1 1 1 1 1 
1 1 1 1 1 1 1 1 1 
1 1 1 1 1 1 1 1 1 
1 1 1 1 1 1 1 1 1 
1 1 1 1 1 1 1 1 1 
1 1 1 1 1 1 1 1 1 
1 1 1 1 1 1 1 1 1 
1 1 1 1 1 1 1 1 1 
1 1 1 1 1 1 1 1 1 
1 1 1 1 1 1 1 1 1 
1 1 1 1 1 1 1 1 1 
1 1 1 1 1 1 1 1 1 
1 1 1 1 1 1 1 1 1 
1 1 1 1 1 1 1 1 1 
1 1 1 1 1 1 1 1 1 
1 1 1 1 1 1 1 1 1 
1 1 1 1 1 1 1 1 1 
1 1 1 1 1 1 1 1 1 
1 1 1 1 1 1 1 1 1 
1 1 1 1 1 1 1 1 1 
1 1 1 1 1 1 1 1 1 
1 1 1 1 1 1 1 1 1 
1 1 1 1 1 1 1 1 1 
1 1 1 1 1 1 1 1 1 
1 1 1 1 1 1 1 1 1 
1 1 1 1 1 1 1 1 1 
1 1 1 1 1 1 1 1 1 
1 1 1 1 1 1 1 1 1 
1 1 1 1 1 1 1 1 1 
1 1 1 1 1 1 1 1 1 
1 1 1 1 1 1 1 1 1 
1 1 1 1 1 1 1 1 1 
1 1 1 1 1 1 1 1 1 
1 1 1 1 1 1 1 1 1 
1 1 1 1 1 1 1 1 1 
1 1 1 1 1 1 1 1 1 
1 1 1 1 1 1 1 1 1 
1 1 1 1 1 1 1 1 1 
1 1 1 1 1 1 1 1 1 
1 1 1 1 1 1 1 1 1 
1 1 1 1 1 1 1 1 1 
1 1 1 1 1 1 1 1 1 
1 1 1 1 1 1 1 1 1 
1 1 1 1 1 1 1 1 1 
1 1 1 1 1 1 1 1 1 
1 1 1 1 1 1 1 1 1 
1 1 1 1 1 1 1 1 1 
1 1 1 1 1 1 1 1 1 
1 1 1 1 1 1 1 1 1 
1 1 1 1 1 1 1 1 1 
1 1 1 1 1 1 1 1 1 
1 1 1 1 1 1 1 1 1 
1 1 1 1 1 1 1 1 1 
1 1 1 1 1 1 1 1 1 
1 1 1 1 1 1 1 1 1 
1 1 1 1 1 1 1 1 1 
1 1 1 1 1 1 1 1 1 
1 1 1 1 1 1 1 1 1 
1 1 1 1 1 1 1 1 1 
1 1 1 1 1 1 1 1 1 
1 1 1 1 1 1 1 1 1 
1 1 1 1 1 1 1 1 1 
1 1 1 1 1 1 1 1 1 
1 1 1 1 1 1 1 1 1 
1 1 1 1 1 1 1 1 1 
1 1 1 1 1 1 1 1 1 
1 1 1 1 1 1 1 1 1 
1 1 1 1 1 1 1 1 1 
1 1 1 1 1 1 1 1 1 
1 1 1 1 1 1 1 1 1 
1 1 1 1 1 1 1 1 1 
1 1 1 1 1 1 1 1 1 
1 1 1 1 1 1 1 1 1 
1 1 1 1 1 1 1 1 1 
1 1 1 1 1 1 1 1 1 
1 1 1 1 1 1 1 1 1 
1 1 1 1 1 1 1 1 1 
1 1 1 1 1 1 1 1 1 
1 1 1 1 1 1 1 1 1 
1 1 1 1 1 1 1 1 1 
1 1 1 1 1 1 1 1 1 
1 1 1 1 1 1 1 1 1 
1 1 1 1 1 1 1 1 1 
1 1 1 1 1 1 1 1 1 
1 1 1 1 1 1 1 1 1 
1 1 1 1 1 1 1 1 1 
1 1 1 1 1 1 1 1 1 
1 1 1 1 1 1 1 1 1 
1 1 1 1 1 1 1 1 1 
1 1 1 1 1 1 1 1 1 
1 1 1 1 1 1 1 1 1 
1 1 1 1 1 1 1 1 1 
1 1 1 1 1 1 1 1 1 
1 1 1 1 1 1 1 1 1 
1 1 1 1 1 1 1 1 1 
1 1 1 1 1 1 1 1 1 
1 1 1 1 1 1 1 1 1 
1 1 1 1 1 1 1 1 1 
1 1 1 1 1 1 1 1 1 
1 1 1 1 1 1 1 1 1 
1 1 1 1 1 1 1 1 1 
1 1 1 1 1 1 1 1 1 
1 1 1 1 1 1 1 1 1 
1 1 1 1 1 1 1 1 1 
1 1 1 1 1 1 1 1 1 
1 1 1 1 1 1 1 1 1 
1 1 1 1 1 1 1 1 1 
1 1 1 1 1 1 1 1 1 
1 1 1 1 1 1 1 1 1 
1 1 1 1 1 1 1 1 1 
1 1 1 1 1 1 1 1 1 
1 1 1 1 1 1 1 1 1 
1 1 1 1 1 1 1 1 1 
1 1 1 1 1 1 1 1 1 
1 1 1 1 1 1 1 1 1 
1 1 1 1 1 1 1 1 1 
1 1 1 1 1 1 1 1 1 
1 1 1 1 1 1 1 1 1 
1 1 1 1 1 1 1 1 1 
1 1 1 1 1 1 1 1 1 
1 1 1 1 1 1 1 1 1 
1 1 1 1 1 1 1 1 1 
1 1 1 1 1 1 1 1 1 
1 1 1 1 1 1 1 1 1 
1 1 1 1 1 1 1 1 1 
1 1 1 1 1 1 1 1 1 
1 1 1 1 1 1 1 1 1 
1 1 1 1 1 1 1 1 1 
1 1 1 1 1 1 1 1 1 
1 1 1 1 1 1 1 1 1 
1 1 1 1 1 1 1 1 1 
1 1 1 1 1 1 1 1 1 
1 1 1 1 1 1 1 1 1 
1 1 1 1 1 1 1 1 1 
1 1 1 1 1 1 1 1 1 
1 1 1 1 1 1 1 1 1 
1 1 1 1 1 1 1 1 1 
1 1 1 1 1 1 1 1 1 
1 1 1 1 1 1 1 1 1 
1 1 1 1 1 1 1 1 1 
1 1 1 1 1 1 1 1 1 
1 1 1 1 1 1 1 1 1 
1 1 1 1 1 1 1 1 1 
1 1 1 1 1 1 1 1 1 
1 1 1 1 1 1 1 1 1 
1 1 1 1 1 1 1 1 1 
1 1 1 1 1 1 1 1 1 
1 1 1 1 1 1 1 1 1 
1 1 1 1 1 1 1 1 1 
1 1 1 1 1 1 1 1 1 
1 1 1 1 1 1 1 1 1 
1 1 1 1 1 1 1 1 1 
1 1 1 1 1 1 1 1 1 
1 1 1 1 1 1 1 1 1 
1 1 1 1 1 1 1 1 1 
1 1 1 1 1 1 1 1 1 
1 1 1 1 1 1 1 1 1 
1 1 1 1 1 1 1 1 1 
1 1 1 1 1 1 1 1 1 
1 1 1 1 1 1 1 1 1 
1 1 1 1 1 1 1 1 1 
1 1 1 1 1 1 1 1 1 
1 1 1 1 1 1 1 1 1 
1 1 1 1 1 1 1 1 1 
1 1 1 1 1 1 1 1 1 
1 1 1 1 1 1 1 1 1 
1 1 1 1 1 1 1 1 1 
1 1 1 1 1 1 1 1 1 
1 1 1 1 1 1 1 1 1 
1 1 1 1 1 1 1 1 1 
1 1 1 1 1 1 1 1 1 
1 1 1 1 1 1 1 1 1 
1 1 1 1 1 1 1 1 1 
1 1 1 1 1 1 1 1 1 
1 1 1 1 1 1 1 1 1 
1 1 1 1 1 1 1 1 1 
1 1 1 1 1 1 1 1 1 
1 1 1 1 1 1 1 1 1 
1 1 1 1 1 1 1 1 1 
1 1 1 1 1 1 1 1 1 
1 1 1 1 1 1 1 1 1 
1 1 1 1 1 1 1 1 1 
1 1 1 1 1 1 1 1 1 
1 1 1 1 1 1 1 1 1 
1 1 1 1 1 1 1 1 1 
1 1 1 1 1 1 1 1 1 
1 1 1 1 1 1 1 1 1 
1 1 1 1 1 1 1 1 1 
1 1 1 1 1 1 1 1 1 
1 1 1 1 1 1 1 1 1 
1 1 1 1 1 1 1 1 1 
1 1 1 1 1 1 1 1 1 
1 1 1 1 1 1 1 1 1 
1 1 1 1 1 1 1 1 1 
1 1 1 1 1 1 1 1 1 
1 1 1 1 1 1 1 1 1 
1 1 1 1 1 1 1 1 1 
1 1 1 1 1 1 1 1 1 
1 1 1 1 1 1 1 1 1 
1 1 1 1 1 1 1 1 1 
1 1 1 1 1 1 1 1 1 
1 1 1 1 1 1 1 1 1 
1 1 1 1 1 1 1 1 1 
1 1 1 1 1 1 1 1 1 
1 1 1 1 1 1 1 1 1 
1 1 1 1 1 1 1 1 1 
1 1 1 1 1 1 1 1 1 
1 1 1 1 1 1 1 1 1 
1 1 1 1 1 1 1 1 1 
1 1 1 1 1 1 1 1 1 
1 1 1 1 1 1 1 1 1 
1 1 1 1 1 1 1 1 1 
1 1 1 1 1 1 1 1 1 
1 1 1 1 1 1 1 1 1 
1 1 1 1 1 1 1 1 1 
1 1 1 1 1 1 1 1 1 
1 1 1 1 1 1 1 1 1 
1 1 1 1 1 1 1 1 1 
1 1 1 1 1 1 1 1 1 
1 1 1 1 1 1 1 1 1 
1 1 1 1 1 1 1 1 1 
1 1 1 1 1 1 1 1 1 
1 1 1 1 1 1 1 1 1 
1 1 1 1 1 1 1 1 1 
1 1 1 1 1 1 1 1 1 
1 1 1 1 1 1 1 1 1 
1 1 1 1 1 1 1 1 1 
1 1 1 1 1 1 1 1 1 
1 1 1 1 1 1 1 1 1 
1 1 1 1 1 1 1 1 1 
1 1 1 1 1 1 1 1 1 
1 1 1 1 1 1 1 1 1 
1 1 1 1 1 1 1 1 1 
1 1 1 1 1 1 1 1 1 
1 1 1 1 1 1 1 1 1 
1 1 1 1 1 1 1 1 1 
1 1 1 1 1 1 1 1 1 
1 1 1 1 1 1 1 1 1 
1 1 1 1 1 1 1 1 1 
1 1 1 1 1 1 1 1 1 
1 1 1 1 1 1 1 1 1 
1 1 1 1 1 1 1 1 1 
1 1 1 1 1 1 1 1 1 
1 1 1 1 1 1 1 1 1 
1 1 1 1 1 1 1 1 1 
1 1 1 1 1 1 1 1 1 
1 1 1 1 1 1 1 1 1 
1 1 1 1 1 1 1 1 1 
1 1 1 1 1 1 1 1 1 
1 1 1 1 1 1 1 1 1 
1 1 1 1 1 1 1 1 1 
1 1 1 1 1 1 1 1 1 
1 1 1 1 1 1 1 1 1 
1 1 1 1 1 1 1 1 1 
1 1 1 1 1 1 1 1 1 
1 1 1 1 1 1 1 1 1 
1 1 1 1 1 1 1 1 1 
1 1 1 1 1 1 1 1 1 
1 1 1 1 1 1 1 1 1 
1 1 1 1 1 1 1 1 1 
1 1 1 1 1 1 1 1 1 
1 1 1 1 1 1 1 1 1 
1 1 1 1 1 1 1 1 1 
1 1 1 1 1 1 1 1 1 
1 1 1 1 1 1 1 1 1 
1 1 1 1 1 1 1 1 1 
1 1 1 1 1 1 1 1 1 
1 1 1 1 1 1 1 1 1 
1 1 1 1 1 1 1 1 1 
1 1 1 1 1 1 1 1 1 
1 1 1 1 1 1 1 1 1 
1 1 1 1 1 1 1 1 1 
1 1 1 1 1 1 1 1 1 
1 1 1 1 1 1 1 1 1 
1 1 1 1 1 1 1 1 1 
1 1 1 1 1 1 1 1 1 
1 1 1 1 1 1 1 1 1 
1 1 1 1 1 1 1 1 1 
1 1 1 1 1 1 1 1 1 
1 1 1 1 1 1 1 1 1 
1 1 1 1 1 1 1 1 1 
1 1 1 1 1 1 1 1 1 
1 1 1 1 1 1 1 1 1 
1 1 1 1 1 1 1 1 1 
1 1 1 1 1 1 1 1 1 
1 1 1 1 1 1 1 1 1 
1 1 1 1 1 1 1 1 1 
1 1 1 1 1 1 1 1 1 
1 1 1 1 1 1 1 1 1 
1 1 1 1 1 1 1 1 1 
1 1 1 1 1 1 1 1 1 
1 1 1 1 1 1 1 1 1 
1 1 1 1 1 1 1 1 1 
1 1 1 1 1 1 1 1 1 
1 1 1 1 1 1 1 1 1 
1 1 1 1 1 1 1 1 1 
1 1 1 1 1 1 1 1 1 
1 1 1 1 1 1 1 1 1 
1 1 1 1 1 1 1 1 1 
1 1 1 1 1 1 1 1 1 
1 1 1 1 1 1 1 1 1 
1 1 1 1 1 1 1 1 1 
1 1 1 1 1 1 1 1 1 
1 1 1 1 1 1 1 1 1 
1 1 1 1 1 1 1 1 1 
1 1 1 1 1 1 1 1 1 
1 1 1 1 1 1 1 1 1 
1 1 1 1 1 1 1 1 1 
1 1 1 1 1 1 1 1 1 
1 1 1 1 1 1 1 1 1 
1 1 1 1 1 1 1 1 1 
1 1 1 1 1 1 1 1 1 
1 1 1 1 1 1 1 1 1 
1 1 1 1 1 1 1 1 1 
1 1 1 1 1 1 1 1 1 
1 1 1 1 1 1 1 1 1 
1 1 1 1 1 1 1 1 1 
1 1 1 1 1 1 1 1 1 
1 1 1 
NORMALS normals float
0 -0.0114935 -0.999934 0 -0.999934 -0.0114935 -0.702984 -0.00817424 -0.711158 
0.572901 -0.579562 -0.579562 -0.0114927 0.0114927 -0.999868 -0.707083 0.0081274 -0.707083 
0.579562 -0.572901 -0.579562 0.0114935 0 -0.999934 0.707107 0 -0.707107 
-0.0081274 0.707083 -0.707083 0.00817424 0.702984 -0.711158 -0.0114927 -0.0114927 -0.999868 
-0.0114927 -0.999868 -0.0114927 -0.707083 -0.707083 -0.0081274 0 -0.0114935 -0.999934 
0 -0.999934 -0.0114935 -0.702984 -0.00817424 -0.711158 0 -0.999934 -0.0114935 
0 -1 0 0.572901 -0.579562 -0.579562 0 -0.999934 -0.0114935 
0.0114927 -0.0114927 -0.999868 0.0114927 -0.999868 -0.0114927 0.999868 -0.0114927 -0.0114927 
-0.0116263 -0.0116263 -0.999865 -0.707107 -0.707107 0 -0.707107 -0.707107 0 
0 0 -1 0 0 -1 -0.703008 0 -0.711182 
0.711182 0 -0.703008 1 0 0 -0.0114927 -0.0114927 -0.999868 
-0.707083 -0.707083 -0.0081274 -0.999868 -0.0114927 -0.0114927 0 0 -1 
0 0 -1 0 0 -1 0 0 -1 
0 0.703008 -0.711182 0 0.703008 -0.711182 0.0116271 0 -0.999932 
1 0 0 -0.0114935 0 -0.999934 -0.999934 0 -0.0114935 
0 0 -1 0 0 -1 0 0 -1 
0 0 -1 0 0 -1 0 0 -1 
0.0114935 0 -0.999934 0.711158 -0.702984 -0.00817424 -0.0114935 0 -0.999934 
-0.711158 -0.702984 -0.00817424 0 0 -1 0 0 -1 
0 0 -1 0 0 -1 0 0 -1 
0 0 -1 0 0 -1 0.702984 -0.711158 -0.00817424 
0 -0.0114935 -0.999934 0.0114927 -0.0114927 -0.999868 0.0114927 -0.999868 -0.0114927 
0.999868 -0.0114927 -0.0114927 -0.0116263 -0.0116263 -0.999865 -0.707107 -0.707107 0 
-0.707107 -0.707107 0 0 0 -1 0 0 -1 
0 0 -1 0 0 -1 0 0 -1 
0 0 -1 0 0 -1 0 0 -1 
0 0 -1 0.0114935 0 -0.999934 0.999934 0 -0.0114935 
-0.0114927 -0.0114927 -0.999868 -0.707083 -0.707083 -0.0081274 -0.999868 -0.0114927 -0.0114927 
0 0 -1 0 0 -1 0 0 -1 
0 0 -1 0 0 -1 0 0 -1 
0 0 -1 0 0 -1 0 0 -1 
0 0 -1 0.0114935 0 -0.999934 0.999934 0 -0.0114935 
-0.0114935 0 -0.999934 -0.999934 0 -0.0114935 0 0 -1 
0 0 -1 0 0 -1 0 0 -1 
0 0 -1 0 0 -1 0 0 -1 
0 0 -1 0 0 -1 0 0 -1 
0.0114935 0 -0.999934 0.999934 0 -0.0114935 -0.0114935 0 -0.999934 
-0.999934 0 -0.0114935 0 0 -1 0 0 -1 
0 0 -1 0 0 -1 0 0 -1 
0 0 -1 0 0 -1 0 0 -1 
0 0 -1 0 0 -1 0.0114935 0 -0.999934 
0.999934 0 -0.0114935 -0.0116263 0.0116263 -0.999865 -0.999934 0.0114935 0 
0 0.0116271 -0.999932 0 0 -1 0 0 -1 
0 0 -1 0 0 -1 0 0 -1 
0 0 -1 0 0 -1 0 0 -1 
0 0 -1 0.0114935 0 -0.999934 0.999934 0 -0.0114935 
-0.0114935 0.999934 0 -0.703008 0.711182 0 -0.711158 0.702984 -0.00817424 
-0.0114935 0 -0.999934 0 0 -1 0 0 -1 
0 0 -1 0 0 -1 0 0 -1 
0 0 -1 0 0 -1 0 0 -1 
0.0114935 0 -0.999934 0.999934 0 -0.0114935 -0.0116263 0.0116263 -0.999865 
-0.999934 0.0114935 0 0 0.0116271 -0.999932 0 0 -1 
0 0 -1 0 0 -1 0 0 -1 
0 0 -1 0 0 -1 0 0 -1 
0.0114935 0 -0.999934 0.707107 0 -0.707107 -0.0114935 0.999934 0 
-0.703008 0.711182 0 -0.711158 0.702984 -0.00817424 -0.0114935 0 -0.999934 
0 0 -1 0 0 -1 0 0 -1 
0 0 -1 0 0 -1 0 0 -1 
0.0114927 0.0114927 -0.999868 0.999868 0.0114927 -0.0114927 -0.0116263 0.0116263 -0.999865 
-0.999934 0.0114935 0 0 0.0114935 -0.999934 0 0 -1 
0 0 -1 0 0.0114935 -0.999934 0 0.0114935 -0.999934 
0.0114927 0.0114927 -0.999868 0.57735 0.57735 -0.57735 0.57735 0.57735 -0.57735 
-0.0114935 0.999934 0 -0.572901 0.579562 -0.579562 -0.579562 0.572901 -0.579562 
-0.0114935 0 -0.999934 0.0114927 0.0114927 -0.999868 0.707083 0.707083 -0.0081274 
0.702984 0.711158 -0.00817424 0 0.999934 -0.0114935 0.0114927 0.999868 -0.0114927 
0 0.0114935 -0.999934 -0.702984 0.00817424 -0.711158 0.572901 0.579562 -0.579562 
0.57735 0.57735 -0.57735 0 0.999934 -0.0114935 -0.0114927 -0.999868 0.0114927 
-0.999868 -0.0114927 0.0114927 0 -0.999934 0.0114935 0 -0.999934 0.0114935 
0 -0.999934 0.0114935 0 -1 0 0.0116271 -0.999932 0 
1 0 0 -0.579562 -0.579562 0.572901 -0.579562 -0.572901 0.579562 
0.5818 0.575113 0.575113 0.5818 0.575113 0.575113 0.5818 0.575113 0.575113 
-0.0114927 -0.999868 0.0114927 -0.999868 -0.0114927 0.0114927 -0.572901 -0.579562 0.579562 
0.5818 -0.575113 0.575113 0.579562 -0.572901 0.579562 -0.999934 0 0.0114935 
0.57735 -0.57735 0.57735 0.707083 -0.707083 0.0081274 -0.999934 0 0.0114935 
0.703008 -0.711182 0 0.0114935 -0.999934 0 0.999934 -0.0114935 0 
-0.579562 -0.579562 0.572901 -0.579562 -0.572901 0.579562 1 0 0 
-0.0114927 -0.999868 0.0114927 -0.999868 -0.0114927 0.0114927 -0.572901 -0.579562 0.579562 
1 0 0 -0.999934 0 0.0114935 1 0 0 
-0.999868 0.0114927 0.0114927 1 0 0 -0.0081274 0.707083 0.707083 
-0.00817424 0.711158 0.702984 -0.572901 0.579562 0.579562 -0.575113 0.5818 0.575113 
-0.579562 0.572901 0.579562 1 0 0 -0.999868 0.0114927 0.0114927 
0.5818 -0.575113 -0.575113 -0.0081274 0.707083 0.707083 -0.00817424 0.711158 0.702984 
-0.572901 0.579562 0.579562 -0.575113 0.5818 0.575113 -0.579562 0.572901 0.579562 
0.575113 -0.575113 -0.5818 0.703008 0 -0.711182 0.0114927 -0.0114927 -0.999868 
0.0081274 -0.707083 -0.707083 0.707083 -0.0081274 -0.707083 -0.0114927 -0.0114927 -0.999868 
-0.0081274 -0.707083 -0.707083 -0.707083 -0.0081274 -0.707083 0.0114935 0 -0.999934 
0.00817424 -0.702984 -0.711158 0.707107 0 -0.707107 -0.999868 0.0114927 0.0114927 
0.00822189 0.707083 -0.707083 0 0.703008 -0.711182 0 0.703008 -0.711182 
0 0 -1 0.575113 -0.575113 -0.5818 0 0 -1 
-0.575113 -0.575113 -0.5818 0.575113 0.575113 -0.5818 0.579562 0.572901 -0.579562 
-0.57735 0.57735 0.57735 -0.579562 0.579562 0.572901 -0.579562 0.572901 0.579562 
0.57735 0.57735 -0.57735 0.0114927 0.0114927 -0.999868 -0.0114927 0.0114927 -0.999868 
-0.0114927 0.0114927 -0.999868 0.575113 -0.575113 -0.5818 0 0 -1 
0.0114927 -0.0114927 -0.999868 0.0081274 -0.707083 -0.707083 0.707083 -0.0081274 -0.707083 
-0.0114927 -0.0114927 -0.999868 -0.0081274 -0.707083 -0.707083 -0.707083 -0.0081274 -0.707083 
0 0 -1 -0.575113 -0.575113 -0.5818 0.0114927 0.0114927 -0.999868 
0.707083 0.0081274 -0.707083 -1 0 0 -0.5818 0.575113 -0.575113 
0.5818 0.575113 -0.575113 0.575113 0.5818 -0.575113 0 0.711182 -0.703008 
0 0.711182 -0.703008 0.0081274 0.707083 -0.707083 -0.0081274 0.707083 -0.707083 
-0.575113 0.575113 -0.5818 -0.575113 0.575113 -0.5818 0 0 -1 
0.575113 -0.575113 -0.5818 0 0 -1 -0.575113 -0.575113 -0.5818 
0.575113 0.575113 -0.5818 0.575113 0.575113 -0.5818 0.0081274 0.707083 -0.707083 
-0.707083 0.0081274 -0.707083 -0.999868 0.0114927 -0.0114927 0.57735 0.57735 -0.57735 
0.707083 0.0081274 -0.707083 -0.0114927 0.0114927 -0.999868 -0.707083 0.0081274 -0.707083 
0.575113 -0.575113 -0.5818 0 0 -1 0 0 -1 
0 -0.703008 -0.711182 0 0 -1 -0.575113 -0.575113 -0.5818 
0.0114927 0.0114927 -0.999868 0.707083 0.0081274 -0.707083 -0.0081274 0.707083 -0.707083 
0 0.711182 -0.703008 0.0081274 0.707083 -0.707083 -0.0081274 0.707083 -0.707083 
0 0.703008 -0.711182 0 0.703008 -0.711182 0 0.703008 -0.711182 
0.0081274 0.707083 -0.707083 -0.0114927 -0.0114927 0.999868 0 -0.0114935 0.999934 
0 -0.0114935 0.999934 -0.702984 -0.00817424 0.711158 -0.711158 -0.00817424 0.702984 
-0.0114935 -0.999934 0 0.0116263 -0.999865 0.0116263 0.999934 0 0.0114935 
-0.0114935 0 0.999934 0 0 1 0 0 1 
-0.703008 0 0.711182 -0.702984 0.00817424 0.711158 0.702984 0.711158 0.00817424 
0.711158 0.702984 0.00817424 -0.0114927 -0.0114927 0.999868 0 -0.0114935 0.999934 
0 0 1 0 0 1 0 0 1 
0 0 1 0 0.707107 0.707107 0.00817424 0.702984 0.711158 
-0.0114935 0 0.999934 0 0 1 0 0 1 
0 0 1 0 0 1 0 0 1 
0 0 1 0.0114927 -0.0114927 0.999868 -0.0114935 0 0.999934 
0 0 1 0 0 1 0 0 1 
0 0 1 0 0 1 0 0 1 
-0.703008 0 0.711182 -0.0114935 -0.999934 0 -0.711158 -0.00817424 0.702984 
0.0114935 -0.999934 0 0.999934 -0.0114935 0 -0.0114935 0 0.999934 
0 0 1 0 0 1 0 0 1 
0 0 1 0 0 1 0 0 1 
-0.703008 0 0.711182 -0.711182 0 0.703008 1 0 0 
-0.0114927 -0.0114927 0.999868 0 -0.0114935 0.999934 0 0 1 
0 0 1 0 0 1 0 0 1 
0 0 1 0 0 1 0 0 1 
-0.703008 0 0.711182 -0.711182 0 0.703008 1 0 0 
-0.0114935 0 0.999934 0 0 1 0 0 1 
0 0 1 0 0 1 0 0 1 
0 0 1 0 0 1 0 0 1 
-0.703008 0 0.711182 -0.711182 0 0.703008 1 0 0 
-0.0114927 0.0114927 0.999868 0 0.0114935 0.999934 0 0 1 
0 0 1 0 0 1 0 0 1 
0 0 1 0 0 1 0 0 1 
-0.703008 0 0.711182 -0.711182 0 0.703008 1 0 0 
-0.0114927 -0.0114927 -0.999868 -0.0081274 -0.707083 -0.707083 -0.57735 -0.57735 -0.57735 
0 -0.0114935 -0.999934 0 -0.707107 -0.707107 0 -0.0114935 -0.999934 
0 -0.707107 -0.707107 0 -0.0114935 -0.999934 0 -0.707107 -0.707107 
0 -0.0114935 -0.999934 0 -0.707107 -0.707107 0.0114927 -0.0114927 -0.999868 
0.0081274 -0.707083 -0.707083 0.999868 -0.0114927 -0.0114927 -0.0114935 0 0.999934 
0 0 1 0 0 1 0 0 1 
0 0 1 0 0 1 0 0 1 
-0.703008 0 0.711182 -0.711182 0 0.703008 0.5818 -0.575113 -0.575113 
-0.0114927 -0.0114927 -0.999868 -0.57735 -0.57735 -0.57735 -0.57735 -0.57735 -0.57735 
0 0 -1 0 0 -1 0 0 -1 
0 0 -1 0 0 -1 0.0114935 0 -0.999934 
0.707107 0 -0.707107 -0.0114927 0.0114927 0.999868 0 0.0114935 0.999934 
0 0 1 0 0 1 0 0 1 
0 0 1 0 0 1 -0.575113 -0.575113 0.5818 
-0.5818 -0.575113 0.575113 0.572901 -0.579562 -0.579562 0.572901 -0.579562 -0.579562 
0 -0.707107 -0.707107 0 -0.707107 -0.707107 0 -0.0114935 -0.999934 
0 -0.707107 -0.707107 0 -0.0114935 -0.999934 0 -0.707107 -0.707107 
0 -0.0114935 -0.999934 -0.572901 -0.579562 -0.579562 0 0 -1 
0 0 -1 0 0 -1 0 0 -1 
0 -0.703008 -0.711182 0 -0.703008 -0.711182 0.0114935 0 -0.999934 
0.999934 0 -0.0114935 -0.0114935 0 0.999934 0 0 1 
0 0 1 0 0 1 -0.575113 -0.575113 0.5818 
-0.579562 -0.579562 0.572901 -0.579562 -0.579562 0.572901 0.703008 0 -0.711182 
0 0 -1 0 0 -1 0 0 -1 
0 0 -1 0 0 -1 -0.703008 0 -0.711182 
0.707107 0 -0.707107 0.999934 0 -0.0114935 -0.0114927 0.0114927 0.999868 
0 0 1 0 0 1 -0.575113 -0.575113 0.5818 
-0.579562 -0.579562 0.572901 -0.579562 -0.579562 0.572901 0 0.703008 -0.711182 
0.575113 -0.575113 -0.5818 0 -0.703008 -0.711182 0 0 -1 
0 0 -1 0 0 -1 0 -0.703008 -0.711182 
-0.575113 -0.575113 -0.5818 0.575113 0.575113 -0.5818 0.0114935 0 -0.999934 
0.999934 0 -0.0114935 -0.0114935 0 0.999934 -0.575113 -0.575113 0.5818 
-0.579562 -0.579562 0.572901 -0.579562 -0.579562 0.572901 0 0 -1 
0.703008 0 -0.711182 0 0 -1 -0.703008 0 -0.711182 
0.703008 0 -0.711182 0.0114935 0 -0.999934 0.999934 0 -0.0114935 
-0.0114927 -0.0114927 -0.999868 -0.0114927 -0.999868 -0.0114927 -0.707083 -0.0081274 -0.707083 
0.0114927 -0.0114927 -0.999868 0.0114927 -0.999868 -0.0114927 0.999868 -0.0114927 -0.0114927 
-0.5818 -0.575113 0.575113 -0.579562 -0.579562 0.572901 -0.579562 -0.579562 0.572901 
0.575113 0.575113 -0.5818 0 0.703008 -0.711182 0 0.703008 -0.711182 
0 0.703008 -0.711182 0 0 -1 0 0.703008 -0.711182 
-0.575113 0.575113 -0.5818 0.575113 -0.575113 -0.5818 0 -0.703008 -0.711182 
-0.575113 -0.575113 -0.5818 0.575113 0.575113 -0.5818 0 0.703008 -0.711182 
0 0 -1 0.0114935 0 -0.999934 0.999934 0 -0.0114935 
-0.0114935 0 -0.999934 -0.707107 0 -0.707107 0.0114935 0 -0.999934 
0.711158 -0.702984 -0.00817424 -0.579562 -0.579562 0.572901 -0.707107 -0.707107 0 
0.703008 0 -0.711182 0 0 -1 0 0 -1 
0 0 -1 0 0 -1 0 0 -1 
-0.703008 0 -0.711182 0.703008 0 -0.711182 0 0 -1 
0 0 -1 0.0114935 0 -0.999934 0.999934 0 -0.0114935 
-0.0114935 0 -0.999934 -0.707107 0 -0.707107 0 0 -1 
0.702984 -0.711158 -0.00817424 0 -0.0114935 -0.999934 0 -0.0114935 -0.999934 
0 -0.999934 -0.0114935 0 -0.0114935 -0.999934 -0.702984 -0.711158 -0.00817424 
0 0.703008 -0.711182 0 0.703008 -0.711182 0 0.703008 -0.711182 
0 0 -1 0 0 -1 0 0 -1 
0 0 -1 0 0 -1 0 0 -1 
0 0 -1 0 0.703008 -0.711182 0 0.703008 -0.711182 
0 0.703008 -0.711182 0 0.703008 -0.711182 0 0.703008 -0.711182 
0 0 -1 0 0 -1 0 0 -1 
0.0114927 0.0114927 -0.999868 0.999868 0.0114927 -0.0114927 -0.0114935 0 -0.999934 
-0.707107 0 -0.707107 0 0 -1 0 0 -1 
0 0 -1 0 0 -1 0 0 -1 
0 0 -1 0 0 -1 0 0 -1 
0 0 -1 0 0 -1 0 0 -1 
0 0.0114935 -0.999934 0 0.0114935 -0.999934 0 0.0114935 -0.999934 
0 0.0114935 -0.999934 0 0.0114935 -0.999934 0 0.0114935 -0.999934 
0 0.0114935 -0.999934 0 0.0114935 -0.999934 0 0.0114935 -0.999934 
0 0.0114935 -0.999934 0.0114927 0.0114927 -0.999868 0.707083 0.707083 -0.0081274 
0.707083 0.707083 -0.0081274 -0.0114935 0 -0.999934 -0.707107 0 -0.707107 
0 0 -1 0 0 -1 0 0 -1 
0 0 -1 0 0 -1 0 0 -1 
0 0 -1 0 0 -1 0 0 -1 