# vtk DataFile Version 3.0
vtk output
ASCII
DATASET POLYDATA
POINTS 5676 float
111 134 35.0119 111 133.012 36 110.012 134 36 
112 134 35.0119 112 133.012 36 112.988 134 36 
111 135 35.0119 110.012 135 36 111.988 135 36 
112 134.988 36 111 135.988 36 111 133.012 37 
110.012 134 37 112 133.012 37 112.988 134 37 
110.012 135 37 112 135 36.0119 112.988 135 37 
111 135.988 37 112 135.988 37 119 132 37.0119 
119 131.012 38 118.012 132 38 120 132 37.0119 
120 131.012 38 120.988 132 38 118 133 37.0119 
118 132.012 38 117.012 133 38 119 133 37.0119 
120 133 37.0119 120.988 133 38 111 133.012 38 
110.012 134 38 112 133.012 38 112.988 134 38 
117 134 37.0119 117 133.012 38 116.012 134 38 
118 134 37.0119 119 134 37.0119 120 134 37.0119 
120.988 134 38 110.012 135 38 112.988 135 38 
116 135 37.0119 116 134.012 38 115.012 135 38 
117 135 37.0119 118 135 37.0119 119 135 37.0119 
120 135 37.0119 120.988 135 38 111 136 37.0119 
110.012 136 38 112 136 37.0119 113 135.012 38 
113 136 37.0119 114 136 37.0119 114 135.012 38 
115 136 37.0119 115 135.012 38 116 136 37.0119 
117 136 37.0119 118 136 37.0119 119 136 37.0119 
120 136 37.0119 120.988 136 38 111 137 37.0119 
110.012 137 38 112 137 37.0119 113 137 37.0119 
114 137 37.0119 115 137 37.0119 116 137 37.0119 
117 137 37.0119 118 137 37.0119 119 137 37.0119 
119.988 137 38 120 136.988 38 111 138 37.0119 
110.012 138 38 112 138 37.0119 113 138 37.0119 
114 138 37.0119 115 138 37.0119 116 138 37.0119 
117 138 37.0119 118 138 37.0119 118.988 138 38 
119 137.988 38 111 139 37.0119 110.012 139 38 
112 139 37.0119 113 139 37.0119 114 139 37.0119 
115 139 37.0119 116 139 37.0119 117 139 37.0119 
118 139 37.0119 118.988 139 38 111 140 37.0119 
110.012 140 38 112 140 37.0119 113 140 37.0119 
114 140 37.0119 115 140 37.0119 116 140 37.0119 
117 140 37.0119 118 140 37.0119 118.988 140 38 
111 141 37.0119 110.012 141 38 112 141 37.0119 
113 141 37.0119 114 141 37.0119 115 141 37.0119 
116 141 37.0119 117 141 37.0119 118 141 37.0119 
118.988 141 38 111 142 37.0119 110.012 142 38 
112 142 37.0119 113 142 37.0119 114 142 37.0119 
115 142 37.0119 116 142 37.0119 117 142 37.0119 
118 142 37.0119 118.988 142 38 111 143 37.0119 
110.012 143 38 112 143 37.0119 113 143 37.0119 
114 143 37.0119 115 143 37.0119 116 143 37.0119 
117 143 37.0119 117.988 143 38 118 142.988 38 
111 143.988 38 112 143.988 38 112.012 144 38 
113 144 37.0119 114 144 37.0119 115 144 37.0119 
116 144 37.0119 116.988 144 38 117 143.988 38 
113 145 37.0119 112.012 145 38 114 145 37.0119 
115 145 37.0119 116 145 37.0119 116.988 145 38 
113 145.988 38 114 145.988 38 114.012 146 38 
115 146 37.0119 116 146 37.0119 116.988 146 38 
115 147 37.0119 114.012 147 38 116 147 37.0119 
116.988 147 38 115 147.988 38 116 147.988 38 
117 147.012 38 116.012 148 38 117 148 37.0119 
118 148 37.0119 118 147.012 38 118.988 148 38 
117 149 37.0119 116.012 149 38 118 149 37.0119 
118.988 149 38 117 149.988 38 118 149.988 38 
119 149.012 38 118.012 150 38 119 150 37.0119 
120 150 37.0119 120 149.012 38 120.988 150 38 
119 151 37.0119 118.012 151 38 120 151 37.0119 
120.988 151 38 119 151.988 38 120 151.988 38 
121 151.012 38 120.012 152 38 121 152 37.0119 
122 152 37.0119 122 151.012 38 122.988 152 38 
121 153 37.0119 120.012 153 38 121.988 153 38 
122 152.988 38 121 153.988 38 119 131.012 39 
118.012 132 39 120 132 38.9881 119.988 132 39 
118 133 38.9881 118.012 133 39 120 133 38.9881 
119.988 133 39 111 133.012 39 110.012 134 39 
112 134 38.9881 111.988 134 39 117 133.012 39 
116.012 134 39 118 133.012 39 120 134 38.9881 
119.988 134 39 110.012 135 39 112 135 38.9881 
111.988 135 39 116 135 38.9881 116.012 135 39 
120 134.012 39 120.988 135 39 110.012 136 39 
112 135.012 39 113 135.012 39 114 135.012 39 
115 135.012 39 116 135.012 39 120.988 136 39 
110.012 137 39 120 137 38.0119 120.988 137 39 
110.012 138 39 118.988 138 39 119 137.988 39 
120 137.988 39 110.012 139 39 118.988 139 39 
110.012 140 39 118.988 140 39 110.012 141 39 
118.988 141 39 110.012 142 39 118.988 142 39 
111 142.988 39 111 143 38.9881 111.012 143 39 
118 143 38.0119 118.988 143 39 112 143.988 39 
112.012 144 39 116.988 144 39 117 143.988 39 
118 143.988 39 113 144.988 39 113 145 38.9881 
113.012 145 39 116.988 145 39 114 145.988 39 
114.012 146 39 116.988 146 39 114.012 147 39 
117 146.012 39 117 147 38.0119 118 147 38.0119 
118 146.012 39 118.988 147 39 115 147.988 39 
116 147.988 39 116.012 148 39 118.988 148 39 
116.012 149 39 119 148.012 39 119 149 38.0119 
120 149 38.0119 120 148.012 39 120.988 149 39 
117 149.988 39 118 149.988 39 118.012 150 39 
120.988 150 39 118.012 151 39 121 150.012 39 
121 151 38.0119 122 151 38.0119 122 150.012 39 
122.988 151 39 119 151.988 39 120 151.988 39 
120.012 152 39 122.988 152 39 120.012 153 39 
121.988 153 39 122 152.988 39 121 153.988 39 
119 132 39.9881 119 133 39.9881 111 134 39.9881 
117 134 39.9881 118 134 39.9881 119 134 39.9881 
111 135 39.9881 117 135 39.9881 118 135 39.9881 
119 135 39.9881 120 135 39.9881 122 135 39.0119 
122 134.012 40 121.012 135 40 122.988 135 40 
111 136 39.9881 112 136 39.9881 113 136 39.9881 
114 136 39.9881 115 136 39.9881 116 136 39.9881 
117 136 39.9881 118 136 39.9881 119 136 39.9881 
120 136 39.9881 121 136 39.0119 121 135.012 40 
120.012 136 40 122 136 39.0119 123 135.012 40 
123 136 39.0119 124 136 39.0119 124 135.012 40 
124.988 136 40 111 137 39.9881 112 137 39.9881 
113 137 39.9881 114 137 39.9881 115 137 39.9881 
116 137 39.9881 117 137 39.9881 118 137 39.9881 
119 137 39.9881 119.012 137 40 120 136.012 40 
121 137 39.0119 122 137 39.0119 123 137 39.0119 
124 137 39.0119 124.988 137 40 111 138 39.9881 
112 138 39.9881 113 138 39.9881 114 138 39.9881 
115 138 39.9881 116 138 39.9881 117 138 39.9881 
118 138 39.9881 119 137.012 40 118.012 138 40 
119 138 39.0119 120 138 39.0119 121 138 39.0119 
122 138 39.0119 123 138 39.0119 124 138 39.0119 
124.988 138 40 111 139 39.9881 112 139 39.9881 
113 139 39.9881 114 139 39.9881 115 139 39.9881 
116 139 39.9881 117 139 39.9881 117.012 139 40 
118 138.012 40 119 139 39.0119 120 139 39.0119 
121 139 39.0119 122 139 39.0119 123 139 39.0119 
124 139 39.0119 124.988 139 40 111 140 39.9881 
112 140 39.9881 113 140 39.9881 114 140 39.9881 
115 140 39.9881 116 140 39.9881 116.012 140 40 
117 139.012 40 119 140 39.0119 120 140 39.0119 
121 140 39.0119 122 140 39.0119 123 140 39.0119 
124 140 39.0119 124.988 140 40 111 141 39.9881 
112 141 39.9881 113 141 39.9881 114 141 39.9881 
115 141 39.9881 116 141 39.9881 116.012 141 40 
119 141 39.0119 120 141 39.0119 121 141 39.0119 
122 141 39.0119 123 141 39.0119 124 141 39.0119 
124.988 141 40 111 142 39.9881 112 142 39.9881 
113 142 39.9881 114 142 39.9881 115 142 39.9881 
116 142 39.9881 116.012 142 40 119 142 39.0119 
120 142 39.0119 121 142 39.0119 122 142 39.0119 
123 142 39.0119 124 142 39.0119 125 141.012 40 
125 142 39.0119 126 142 39.0119 126 141.012 40 
126.988 142 40 112 143 39.9881 113 143 39.9881 
114 143 39.9881 115 143 39.9881 115.012 143 40 
116 142.012 40 119 143 39.0119 120 143 39.0119 
121 143 39.0119 122 143 39.0119 123 143 39.0119 
124 143 39.0119 125 143 39.0119 126 143 39.0119 
126.988 143 40 113 144 39.9881 114 144 39.9881 
114.012 144 40 115 143.012 40 117 144 39.0119 
118 144 39.0119 119 144 39.0119 120 144 39.0119 
121 144 39.0119 122 144 39.0119 123 144 39.0119 
124 144 39.0119 125 144 39.0119 126 144 39.0119 
127 143.012 40 127 144 39.0119 128 144 39.0119 
128 143.012 40 129 144 39.0119 129 143.012 40 
130 144 39.0119 130 143.012 40 131 144 39.0119 
131 143.012 40 132 144 39.0119 132 143.012 40 
132.988 144 40 114 144.012 40 113.012 145 40 
117 145 39.0119 118 145 39.0119 119 145 39.0119 
120 145 39.0119 121 145 39.0119 122 145 39.0119 
123 145 39.0119 124 145 39.0119 125 145 39.0119 
126 145 39.0119 127 145 39.0119 128 145 39.0119 
129 145 39.0119 130 145 39.0119 131 145 39.0119 
132 145 39.0119 132.988 145 40 114 145.988 40 
114.012 146 40 117 146 39.0119 118 146 39.0119 
119 146 39.0119 120 146 39.0119 121 146 39.0119 
122 146 39.0119 123 146 39.0119 124 146 39.0119 
125 146 39.0119 126 146 39.0119 127 146 39.0119 
128 146 39.0119 129 146 39.0119 130 146 39.0119 
131 146 39.0119 132 146 39.0119 133 145.012 40 
133 146 39.0119 134 146 39.0119 134 145.012 40 
135 146 39.0119 135 145.012 40 136 146 39.0119 
136 145.012 40 136.988 146 40 114.012 147 40 
119 147 39.0119 120 147 39.0119 121 147 39.0119 
122 147 39.0119 123 147 39.0119 124 147 39.0119 
125 147 39.0119 126 147 39.0119 127 147 39.0119 
128 147 39.0119 129 147 39.0119 130 147 39.0119 
131 147 39.0119 132 147 39.0119 133 147 39.0119 
134 147 39.0119 135 147 39.0119 136 147 39.0119 
136.988 147 40 115 147.988 40 116 147.988 40 
116.012 148 40 119 148 39.0119 120 148 39.0119 
121 148 39.0119 122 148 39.0119 123 148 39.0119 
124 148 39.0119 125 148 39.0119 126 148 39.0119 
127 148 39.0119 128 148 39.0119 129 148 39.0119 
130 148 39.0119 131 148 39.0119 132 148 39.0119 
133 148 39.0119 134 148 39.0119 135 148 39.0119 
136 148 39.0119 137 147.012 40 137 148 39.0119 
138 148 39.0119 138 147.012 40 138.988 148 40 
116.012 149 40 121 149 39.0119 122 149 39.0119 
123 149 39.0119 124 149 39.0119 125 149 39.0119 
126 149 39.0119 127 149 39.0119 128 149 39.0119 
129 149 39.0119 130 149 39.0119 131 149 39.0119 
132 149 39.0119 133 149 39.0119 134 149 39.0119 
135 149 39.0119 136 149 39.0119 137 149 39.0119 
138 149 39.0119 138.988 149 40 117 149.988 40 
118 149.988 40 118.012 150 40 121 150 39.0119 
122 150 39.0119 123 150 39.0119 124 150 39.0119 
125 150 39.0119 126 150 39.0119 127 150 39.0119 
128 150 39.0119 129 150 39.0119 130 150 39.0119 
131 150 39.0119 132 150 39.0119 133 150 39.0119 
134 150 39.0119 135 150 39.0119 136 150 39.0119 
137 150 39.0119 138 150 39.0119 138.988 150 40 
118.012 151 40 123 151 39.0119 124 151 39.0119 
125 151 39.0119 126 151 39.0119 127 151 39.0119 
128 151 39.0119 129 151 39.0119 130 151 39.0119 
131 151 39.0119 132 151 39.0119 133 151 39.0119 
134 151 39.0119 135 151 39.0119 136 151 39.0119 
[...]
POINT_DATA 5676
SCALARS scalars float
LOOKUP_TABLE default
1 1 1 1 1 1 1 1 1 
1 1 1 1 1 1 1 1 1 
1 1 1 1 1 1 1 1 1 
1 1 1 1 1 1 1 1 1 
1 1 1 1 1 1 1 1 1 
1 1 1 1 1 1 1 1 1 
1 1 1 1 1 1 1 1 1 
1 1 1 1 1 1 1 1 1 
1 1 1 1 1 1 1 1 1 
1 1 1 1 1 1 1 1 1 
1 1 1 1 1 1 1 1 1 
1 1 1 1 1 1 1 1 1 
1 1 1 1 1 1 1 1 1 
1 1 1 1 1 1 1 1 1 
1 1 1 1 1 1 1 1 1 
1 1 1 1 1 1 1 1 1 
1 1 1 1 1 1 1 1 1 
1 1 1 1 1 1 1 1 1 
1 1 1 1 1 1 1 1 1 
1 1 1 1 1 1 1 1 1 
1 1 1 1 1 1 1 1 1 
1 1 1 1 1 1 1 1 1 
1 1 1 1 1 1 1 1 1 
1 1 1 1 1 1 1 1 1 
1 1 1 1 1 1 1 1 1 
1 1 1 1 1 1 1 1 1 
1 1 1 1 1 1 1 1 1 
1 1 1 1 1 1 1 1 1 
1 1 1 1 1 1 1 1 1 
1 1 1 1 1 1 1 1 1 
1 1 1 1 1 1 1 1 1 
1 1 1 1 1 1 1 1 1 
1 1 1 1 1 1 1 1 1 
1 1 1 1 1 1 1 1 1 
1 1 1 1 1 1 1 1 1 
1 1 1 1 1 1 1 1 1 
1 1 1 1 1 1 1 1 1 
1 1 1 1 1 1 1 1 1 
1 1 1 1 1 1 1 1 1 
1 1 1 1 1 1 1 1 1 
1 1 1 1 1 1 1 1 1 
1 1 1 1 1 1 1 1 1 
1 1 1 1 1 1 1 1 1 
1 1 1 1 1 1 1 1 1 
1 1 1 1 1 1 1 1 1 
1 1 1 1 1 1 1 1 1 
1 1 1 1 1 1 1 1 1 
1 1 1 1 1 1 1 1 1 
1 1 1 1 1 1 1 1 1 
1 1 1 1 1 1 1 1 1 
1 1 1 1 1 1 1 1 1 
1 1 1 1 1 1 1 1 1 
1 1 1 1 1 1 1 1 1 
1 1 1 1 1 1 1 1 1 
1 1 1 1 1 1 1 1 1 
1 1 1 1 1 1 1 1 1 
1 1 1 1 1 1 1 1 1 
1 1 1 1 1 1 1 1 1 
1 1 1 1 1 1 1 1 1 
1 1 1 1 1 1 1 1 1 
1 1 1 1 1 1 1 1 1 
1 1 1 1 1 1 1 1 1 
1 1 1 1 1 1 1 1 1 
1 1 1 1 1 1 1 1 1 
1 1 1 1 1 1 1 1 1 
1 1 1 1 1 1 1 1 1 
1 1 1 1 1 1 1 1 1 
1 1 1 1 1 1 1 1 1 
1 1 1 1 1 1 1 1 1 
1 1 1 1 1 1 1 1 1 
1 1 1 1 1 1 1 1 1 
1 1 1 1 1 1 1 1 1 
1 1 1 1 1 1 1 1 1 
1 1 1 1 1 1 1 1 1 
1 1 1 1 1 1 1 1 1 
1 1 1 1 1 1 1 1 1 
1 1 1 1 1 1 1 1 1 
1 1 1 1 1 1 1 1 1 
1 1 1 1 1 1 1 1 1 
1 1 1 1 1 1 1 1 1 
1 1 1 1 1 1 1 1 1 
1 1 1 1 1 1 1 1 1 
1 1 1 1 1 1 1 1 1 
1 1 1 1 1 1 1 1 1 
1 1 1 1 1 1 1 1 1 
1 1 1 1 1 1 1 1 1 
1 1 1 1 1 1 1 1 1 
1 1 1 1 1 1 1 1 1 
1 1 1 1 1 1 1 1 1 
1 1 1 1 1 1 1 1 1 
1 1 1 1 1 1 1 1 1 
1 1 1 1 1 1 1 1 1 
1 1 1 1 1 1 1 1 1 
1 1 1 1 1 1 1 1 1 
1 1 1 1 1 1 1 1 1 
1 1 1 1 1 1 1 1 1 
1 1 1 1 1 1 1 1 1 
1 1 1 1 1 1 1 1 1 
1 1 1 1 1 1 1 1 1 
1 1 1 1 1 1 1 1 1 
1 1 1 1 1 1 1 1 1 
1 1 1 1 1 1 1 1 1 
1 1 1 1 1 1 1 1 1 
1 1 1 1 1 1 1 1 1 
1 1 1 1 1 1 1 1 1 
1 1 1 1 1 1 1 1 1 
1 1 1 1 1 1 1 1 1 
1 1 1 1 1 1 1 1 1 
1 1 1 1 1 1 1 1 1 
1 1 1 1 1 1 1 1 1 
1 1 1 1 1 1 1 1 1 
1 1 1 1 1 1 1 1 1 
1 1 1 1 1 1 1 1 1 
1 1 1 1 1 1 1 1 1 
1 1 1 1 1 1 1 1 1 
1 1 1 1 1 1 1 1 1 
1 1 1 1 1 1 1 1 1 
1 1 1 1 1 1 1 1 1 
1 1 1 1 1 1 1 1 1 
1 1 1 1 1 1 1 1 1 
1 1 1 1 1 1 1 1 1 
1 1 1 1 1 1 1 1 1 
1 1 1 1 1 1 1 1 1 
1 1 1 1 1 1 1 1 1 
1 1 1 1 1 1 1 1 1 
1 1 1 1 1 1 1 1 1 
1 1 1 1 1 1 1 1 1 
1 1 1 1 1 1 1 1 1 
1 1 1 1 1 1 1 1 1 
1 1 1 1 1 1 1 1 1 
1 1 1 1 1 1 1 1 1 
1 1 1 1 1 1 1 1 1 
1 1 1 1 1 1 1 1 1 
1 1 1 1 1 1 1 1 1 
1 1 1 1 1 1 1 1 1 
1 1 1 1 1 1 1 1 1 
1 1 1 1 1 1 1 1 1 
1 1 1 1 1 1 1 1 1 
1 1 1 1 1 1 1 1 1 
1 1 1 1 1 1 1 1 1 
1 1 1 1 1 1 1 1 1 
1 1 1 1 1 1 1 1 1 
1 1 1 1 1 1 1 1 1 
1 1 1 1 1 1 1 1 1 
1 1 1 1 1 1 1 1 1 
1 1 1 1 1 1 1 1 1 
1 1 1 1 1 1 1 1 1 
1 1 1 1 1 1 1 1 1 
1 1 1 1 1 1 1 1 1 
1 1 1 1 1 1 1 1 1 
1 1 1 1 1 1 1 1 1 
1 1 1 1 1 1 1 1 1 
1 1 1 1 1 1 1 1 1 
1 1 1 1 1 1 1 1 1 
1 1 1 1 1 1 1 1 1 
1 1 1 1 1 1 1 1 1 
1 1 1 1 1 1 1 1 1 
1 1 1 1 1 1 1 1 1 
1 1 1 1 1 1 1 1 1 
1 1 1 1 1 1 1 1 1 
1 1 1 1 1 1 1 1 1 
1 1 1 1 1 1 1 1 1 
1 1 1 1 1 1 1 1 1 
1 1 1 1 1 1 1 1 1 
1 1 1 1 1 1 1 1 1 
1 1 1 1 1 1 1 1 1 
1 1 1 1 1 1 1 1 1 
1 1 1 1 1 1 1 1 1 
1 1 1 1 1 1 1 1 1 
1 1 1 1 1 1 1 1 1 
1 1 1 1 1 1 1 1 1 
1 1 1 1 1 1 1 1 1 
1 1 1 1 1 1 1 1 1 
1 1 1 1 1 1 1 1 1 
1 1 1 1 1 1 1 1 1 
1 1 1 1 1 1 1 1 1 
1 1 1 1 1 1 1 1 1 
1 1 1 1 1 1 1 1 1 
1 1 1 1 1 1 1 1 1 
1 1 1 1 1 1 1 1 1 
1 1 1 1 1 1 1 1 1 
1 1 1 1 1 1 1 1 1 
1 1 1 1 1 1 1 1 1 
1 1 1 1 1 1 1 1 1 
1 1 1 1 1 1 1 1 1 
1 1 1 1 1 1 1 1 1 
1 1 1 1 1 1 1 1 1 
1 1 1 1 1 1 1 1 1 
1 1 1 1 1 1 1 1 1 
1 1 1 1 1 1 1 1 1 
1 1 1 1 1 1 1 1 1 
1 1 1 1 1 1 1 1 1 
1 1 1 1 1 1 1 1 1 
1 1 1 1 1 1 1 1 1 
1 1 1 1 1 1 1 1 1 
1 1 1 1 1 1 1 1 1 
1 1 1 1 1 1 1 1 1 
1 1 1 1 1 1 1 1 1 
1 1 1 1 1 1 1 1 1 
1 1 1 1 1 1 1 1 1 
1 1 1 1 1 1 1 1 1 
1 1 1 1 1 1 1 1 1 
1 1 1 1 1 1 1 1 1 
1 1 1 1 1 1 1 1 1 
1 1 1 1 1 1 1 1 1 
1 1 1 1 1 1 1 1 1 
1 1 1 1 1 1 1 1 1 
1 1 1 1 1 1 1 1 1 
1 1 1 1 1 1 1 1 1 
1 1 1 1 1 1 1 1 1 
1 1 1 1 1 1 1 1 1 
1 1 1 1 1 1 1 1 1 
1 1 1 1 1 1 1 1 1 
1 1 1 1 1 1 1 1 1 
1 1 1 1 1 1 1 1 1 
1 1 1 1 1 1 1 1 1 
1 1 1 1 1 1 1 1 1 
1 1 1 1 1 1 1 1 1 
1 1 1 1 1 1 1 1 1 
1 1 1 1 1 1 1 1 1 
1 1 1 1 1 1 1 1 1 
1 1 1 1 1 1 1 1 1 
1 1 1 1 1 1 1 1 1 
1 1 1 1 1 1 1 1 1 
1 1 1 1 1 1 1 1 1 
1 1 1 1 1 1 1 1 1 
1 1 1 1 1 1 1 1 1 
1 1 1 1 1 1 1 1 1 
1 1 1 1 1 1 1 1 1 
1 1 1 1 1 1 1 1 1 
1 1 1 1 1 1 1 1 1 
1 1 1 1 1 1 1 1 1 
1 1 1 1 1 1 1 1 1 
1 1 1 1 1 1 1 1 1 
1 1 1 1 1 1 1 1 1 
1 1 1 1 1 1 1 1 1 
1 1 1 1 1 1 1 1 1 
1 1 1 1 1 1 1 1 1 
1 1 1 1 1 1 1 1 1 
1 1 1 1 1 1 1 1 1 
1 1 1 1 1 1 1 1 1 
1 1 1 1 1 1 1 1 1 
1 1 1 1 1 1 1 1 1 
1 1 1 1 1 1 1 1 1 
1 1 1 1 1 1 1 1 1 
1 1 1 1 1 1 1 1 1 
1 1 1 1 1 1 1 1 1 
1 1 1 1 1 1 1 1 1 
1 1 1 1 1 1 1 1 1 
1 1 1 1 1 1 1 1 1 
1 1 1 1 1 1 1 1 1 
1 1 1 1 1 1 1 1 1 
1 1 1 1 1 1 1 1 1 
1 1 1 1 1 1 1 1 1 
1 1 1 1 1 1 1 1 1 
1 1 1 1 1 1 1 1 1 
1 1 1 1 1 1 1 1 1 
1 1 1 1 1 1 1 1 1 
1 1 1 1 1 1 1 1 1 
1 1 1 1 1 1 1 1 1 
1 1 1 1 1 1 1 1 1 
1 1 1 1 1 1 1 1 1 
1 1 1 1 1 1 1 1 1 
1 1 1 1 1 1 1 1 1 
1 1 1 1 1 1 1 1 1 
1 1 1 1 1 1 1 1 1 
1 1 1 1 1 1 1 1 1 
1 1 1 1 1 1 1 1 1 
1 1 1 1 1 1 1 1 1 
1 1 1 1 1 1 1 1 1 
1 1 1 1 1 1 1 1 1 
1 1 1 1 1 1 1 1 1 
1 1 1 1 1 1 1 1 1 
1 1 1 1 1 1 1 1 1 
1 1 1 1 1 1 1 1 1 
1 1 1 1 1 1 1 1 1 
1 1 1 1 1 1 1 1 1 
1 1 1 1 1 1 1 1 1 
1 1 1 1 1 1 1 1 1 
1 1 1 1 1 1 1 1 1 
1 1 1 1 1 1 1 1 1 
1 1 1 1 1 1 1 1 1 
1 1 1 1 1 1 1 1 1 
1 1 1 1 1 1 1 1 1 
1 1 1 1 1 1 1 1 1 
1 1 1 1 1 1 1 1 1 
1 1 1 1 1 1 1 1 1 
1 1 1 1 1 1 1 1 1 
1 1 1 1 1 1 1 1 1 
1 1 1 1 1 1 1 1 1 
1 1 1 1 1 1 1 1 1 
1 1 1 1 1 1 1 1 1 
1 1 1 1 1 1 1 1 1 
1 1 1 1 1 1 1 1 1 
1 1 1 1 1 1 1 1 1 
1 1 1 1 1 1 1 1 1 
1 1 1 1 1 1 1 1 1 
1 1 1 1 1 1 1 1 1 
1 1 1 1 1 1 1 1 1 
1 1 1 1 1 1 1 1 1 
1 1 1 1 1 1 1 1 1 
1 1 1 1 1 1 1 1 1 
1 1 1 1 1 1 1 1 1 
1 1 1 1 1 1 1 1 1 
1 1 1 1 1 1 1 1 1 
1 1 1 1 1 1 1 1 1 
1 1 1 1 1 1 1 1 1 
1 1 1 1 1 1 1 1 1 
1 1 1 1 1 1 1 1 1 
1 1 1 1 1 1 1 1 1 
1 1 1 1 1 1 1 1 1 
1 1 1 1 1 1 1 1 1 
1 1 1 1 1 1 1 1 1 
1 1 1 1 1 1 1 1 1 
1 1 1 1 1 1 1 1 1 
1 1 1 1 1 1 1 1 1 
1 1 1 1 1 1 1 1 1 
1 1 1 1 1 1 1 1 1 
1 1 1 1 1 1 1 1 1 
1 1 1 1 1 1 1 1 1 
1 1 1 1 1 1 1 1 1 
1 1 1 1 1 1 1 1 1 
1 1 1 1 1 1 1 1 1 
1 1 1 1 1 1 1 1 1 
1 1 1 1 1 1 1 1 1 
1 1 1 1 1 1 1 1 1 
1 1 1 1 1 1 1 1 1 
1 1 1 1 1 1 1 1 1 
1 1 1 1 1 1 1 1 1 
1 1 1 1 1 1 1 1 1 
1 1 1 1 1 1 1 1 1 
1 1 1 1 1 1 1 1 1 
1 1 1 1 1 1 1 1 1 
1 1 1 1 1 1 1 1 1 
1 1 1 1 1 1 1 1 1 
1 1 1 1 1 1 1 1 1 
1 1 1 1 1 1 1 1 1 
1 1 1 1 1 1 1 1 1 
1 1 1 1 1 1 1 1 1 
1 1 1 1 1 1 1 1 1 
1 1 1 1 1 1 1 1 1 
1 1 1 1 1 1 1 1 1 
1 1 1 1 1 1 1 1 1 
1 1 1 1 1 1 1 1 1 
1 1 1 1 1 1 1 1 1 
1 1 1 1 1 1 1 1 1 
1 1 1 1 1 1 1 1 1 
1 1 1 1 1 1 1 1 1 
1 1 1 1 1 1 1 1 1 
1 1 1 1 1 1 1 1 1 
1 1 1 1 1 1 1 1 1 
1 1 1 1 1 1 1 1 1 
1 1 1 1 1 1 1 1 1 
1 1 1 1 1 1 1 1 1 
1 1 1 1 1 1 1 1 1 
1 1 1 1 1 1 1 1 1 
1 1 1 1 1 1 1 1 1 
1 1 1 1 1 1 1 1 1 
1 1 1 1 1 1 1 1 1 
1 1 1 1 1 1 1 1 1 
1 1 1 1 1 1 1 1 1 
1 1 1 1 1 1 1 1 1 
1 1 1 1 1 1 1 1 1 
1 1 1 1 1 1 1 1 1 
1 1 1 1 1 1 1 1 1 
1 1 1 1 1 1 1 1 1 
1 1 1 1 1 1 1 1 1 
1 1 1 1 1 1 1 1 1 
1 1 1 1 1 1 1 1 1 
1 1 1 1 1 1 1 1 1 
1 1 1 1 1 1 1 1 1 
1 1 1 1 1 1 1 1 1 
1 1 1 1 1 1 1 1 1 
1 1 1 1 1 1 1 1 1 
1 1 1 1 1 1 1 1 1 
1 1 1 1 1 1 1 1 1 
1 1 1 1 1 1 1 1 1 
1 1 1 1 1 1 1 1 1 
1 1 1 1 1 1 1 1 1 
1 1 1 1 1 1 1 1 1 
1 1 1 1 1 1 1 1 1 
1 1 1 1 1 1 1 1 1 
1 1 1 1 1 1 1 1 1 
1 1 1 1 1 1 1 1 1 
1 1 1 1 1 1 1 1 1 
1 1 1 1 1 1 1 1 1 
1 1 1 1 1 1 1 1 1 
1 1 1 1 1 1 1 1 1 
1 1 1 1 1 1 1 1 1 
1 1 1 1 1 1 1 1 1 
1 1 1 1 1 1 1 1 1 
1 1 1 1 1 1 1 1 1 
1 1 1 1 1 1 1 1 1 
1 1 1 1 1 1 1 1 1 
1 1 1 1 1 1 1 1 1 
1 1 1 1 1 1 1 1 1 
1 1 1 1 1 1 1 1 1 
1 1 1 1 1 1 1 1 1 
1 1 1 1 1 1 1 1 1 
1 1 1 1 1 1 1 1 1 
1 1 1 1 1 1 1 1 1 
1 1 1 1 1 1 1 1 1 
1 1 1 1 1 1 1 1 1 
1 1 1 1 1 1 1 1 1 
1 1 1 1 1 1 1 1 1 
1 1 1 1 1 1 1 1 1 
1 1 1 1 1 1 1 1 1 
1 1 1 1 1 1 1 1 1 
1 1 1 1 1 1 1 1 1 
1 1 1 1 1 1 1 1 1 
1 1 1 1 1 1 1 1 1 
1 1 1 1 1 1 1 1 1 
1 1 1 1 1 1 1 1 1 
1 1 1 1 1 1 1 1 1 
1 1 1 1 1 1 1 1 1 
1 1 1 1 1 1 1 1 1 
1 1 1 1 1 1 1 1 1 
1 1 1 1 1 1 1 1 1 
1 1 1 1 1 1 1 1 1 
1 1 1 1 1 1 1 1 1 
1 1 1 1 1 1 1 1 1 
1 1 1 1 1 1 1 1 1 
1 1 1 1 1 1 1 1 1 
1 1 1 1 1 1 1 1 1 
1 1 1 1 1 1 1 1 1 
1 1 1 1 1 1 1 1 1 
1 1 1 1 1 1 1 1 1 
1 1 1 1 1 1 1 1 1 
1 1 1 1 1 1 1 1 1 
1 1 1 1 1 1 1 1 1 
1 1 1 1 1 1 1 1 1 
1 1 1 1 1 1 1 1 1 
1 1 1 1 1 1 1 1 1 
1 1 1 1 1 1 1 1 1 
1 1 1 1 1 1 1 1 1 
1 1 1 1 1 1 1 1 1 
1 1 1 1 1 1 1 1 1 
1 1 1 1 1 1 1 1 1 
1 1 1 1 1 1 1 1 1 
1 1 1 1 1 1 1 1 1 
1 1 1 1 1 1 1 1 1 
1 1 1 1 1 1 1 1 1 
1 1 1 1 1 1 1 1 1 
1 1 1 1 1 1 1 1 1 
1 1 1 1 1 1 1 1 1 
1 1 1 1 1 1 1 1 1 
1 1 1 1 1 1 1 1 1 
1 1 1 1 1 1 1 1 1 
1 1 1 1 1 1 1 1 1 
1 1 1 1 1 1 1 1 1 
1 1 1 1 1 1 1 1 1 
1 1 1 1 1 1 1 1 1 
1 1 1 1 1 1 1 1 1 
1 1 1 1 1 1 1 1 1 
1 1 1 1 1 1 1 1 1 
1 1 1 1 1 1 1 1 1 
1 1 1 1 1 1 1 1 1 
1 1 1 1 1 1 1 1 1 
1 1 1 1 1 1 1 1 1 
1 1 1 1 1 1 1 1 1 
1 1 1 1 1 1 1 1 1 
1 1 1 1 1 1 1 1 1 
1 1 1 1 1 1 1 1 1 
1 1 1 1 1 1 1 1 1 
1 1 1 1 1 1 1 1 1 
1 1 1 1 1 1 1 1 1 
1 1 1 1 1 1 1 1 1 
1 1 1 1 1 1 1 1 1 
1 1 1 1 1 1 1 1 1 
1 1 1 1 1 1 1 1 1 
1 1 1 1 1 1 1 1 1 
1 1 1 1 1 1 1 1 1 
1 1 1 1 1 1 1 1 1 
1 1 1 1 1 1 1 1 1 
1 1 1 1 1 1 1 1 1 
1 1 1 1 1 1 1 1 1 
1 1 1 1 1 1 1 1 1 
1 1 1 1 1 1 1 1 1 
1 1 1 1 1 1 1 1 1 
1 1 1 1 1 1 1 1 1 
1 1 1 1 1 1 1 1 1 
1 1 1 1 1 1 1 1 1 
1 1 1 1 1 1 1 1 1 
1 1 1 1 1 1 1 1 1 
1 1 1 1 1 1 1 1 1 
1 1 1 1 1 1 1 1 1 
1 1 1 1 1 1 1 1 1 
1 1 1 1 1 1 1 1 1 
1 1 1 1 1 1 1 1 1 
1 1 1 1 1 1 1 1 1 
1 1 1 1 1 1 1 1 1 
1 1 1 1 1 1 1 1 1 
1 1 1 1 1 1 1 1 1 
1 1 1 1 1 1 1 1 1 
1 1 1 1 1 1 1 1 1 
1 1 1 1 1 1 1 1 1 
1 1 1 1 1 1 1 1 1 
1 1 1 1 1 1 1 1 1 
1 1 1 1 1 1 1 1 1 
1 1 1 1 1 1 1 1 1 
1 1 1 1 1 1 1 1 1 
1 1 1 1 1 1 1 1 1 
1 1 1 1 1 1 1 1 1 
1 1 1 1 1 1 1 1 1 
1 1 1 1 1 1 1 1 1 
1 1 1 1 1 1 1 1 1 
1 1 1 1 1 1 1 1 1 
1 1 1 1 1 1 1 1 1 
1 1 1 1 1 1 1 1 1 
1 1 1 1 1 1 1 1 1 
1 1 1 1 1 1 1 1 1 
1 1 1 1 1 1 1 1 1 
1 1 1 1 1 1 1 1 1 
1 1 1 1 1 1 1 1 1 
1 1 1 1 1 1 1 1 1 
1 1 1 1 1 1 1 1 1 
1 1 1 1 1 1 1 1 1 
1 1 1 1 1 1 1 1 1 
1 1 1 1 1 1 1 1 1 
1 1 1 1 1 1 1 1 1 
1 1 1 1 1 1 1 1 1 
1 1 1 1 1 1 1 1 1 
1 1 1 1 1 1 1 1 1 
1 1 1 1 1 1 1 1 1 
1 1 1 1 1 1 1 1 1 
1 1 1 1 1 1 1 1 1 
1 1 1 1 1 1 1 1 1 
1 1 1 1 1 1 1 1 1 
1 1 1 1 1 1 1 1 1 
1 1 1 1 1 1 1 1 1 
1 1 1 1 1 1 1 1 1 
1 1 1 1 1 1 1 1 1 
1 1 1 1 1 1 1 1 1 
1 1 1 1 1 1 1 1 1 
1 1 1 1 1 1 1 1 1 
1 1 1 1 1 1 1 1 1 
1 1 1 1 1 1 1 1 1 
1 1 1 1 1 1 1 1 1 
1 1 1 1 1 1 1 1 1 
1 1 1 1 1 1 1 1 1 
1 1 1 1 1 1 1 1 1 
1 1 1 1 1 1 1 1 1 
1 1 1 1 1 1 1 1 1 
1 1 1 1 1 1 1 1 1 
1 1 1 1 1 1 1 1 1 
1 1 1 1 1 1 1 1 1 
1 1 1 1 1 1 1 1 1 
1 1 1 1 1 1 1 1 1 
1 1 1 1 1 1 1 1 1 
1 1 1 1 1 1 1 1 1 
1 1 1 1 1 1 1 1 1 
1 1 1 1 1 1 1 1 1 
1 1 1 1 1 1 1 1 1 
1 1 1 1 1 1 1 1 1 
1 1 1 1 1 1 1 1 1 
1 1 1 1 1 1 1 1 1 
1 1 1 1 1 1 1 1 1 
1 1 1 1 1 1 1 1 1 
1 1 1 1 1 1 1 1 1 
1 1 1 1 1 1 1 1 1 
1 1 1 1 1 1 1 1 1 
1 1 1 1 1 1 1 1 1 
1 1 1 1 1 1 1 1 1 
1 1 1 1 1 1 1 1 1 
1 1 1 1 1 1 1 1 1 
1 1 1 1 1 1 1 1 1 
1 1 1 1 1 1 1 1 1 
1 1 1 1 1 1 1 1 1 
1 1 1 1 1 1 1 1 1 
1 1 1 1 1 1 1 1 1 
1 1 1 1 1 1 1 1 1 
1 1 1 1 1 1 1 1 1 
1 1 1 1 1 1 1 1 1 
1 1 1 1 1 1 1 1 1 
1 1 1 1 1 1 1 1 1 
1 1 1 1 1 1 1 1 1 
1 1 1 1 1 1 1 1 1 
1 1 1 1 1 1 1 1 1 
1 1 1 1 1 1 1 1 1 
1 1 1 1 1 1 1 1 1 
1 1 1 1 1 1 1 1 1 
1 1 1 1 1 1 1 1 1 
1 1 1 1 1 1 1 1 1 
1 1 1 1 1 1 1 1 1 
1 1 1 1 1 1 1 1 1 
1 1 1 1 1 1 1 1 1 
1 1 1 1 1 1 1 1 1 
1 1 1 1 1 1 1 1 1 
1 1 1 1 1 1 1 1 1 
1 1 1 1 1 1 1 1 1 
1 1 1 1 1 1 1 1 1 
1 1 1 1 1 1 1 1 1 
1 1 1 1 1 1 1 1 1 
1 1 1 1 1 1 1 1 1 
1 1 1 1 1 1 1 1 1 
1 1 1 1 1 1 1 1 1 
1 1 1 1 1 1 1 1 1 
1 1 1 1 1 1 1 1 1 
1 1 1 1 1 1 1 1 1 
1 1 1 1 1 1 1 1 1 
1 1 1 1 1 1 1 1 1 
1 1 1 1 1 1 1 1 1 
1 1 1 1 1 1 1 1 1 
1 1 1 1 1 1 1 1 1 
1 1 1 1 1 1 1 1 1 
1 1 1 1 1 1 1 1 1 
1 1 1 1 1 1 1 1 1 
1 1 1 1 1 1 1 1 1 
1 1 1 1 1 1 1 1 1 
1 1 1 1 1 1 1 1 1 
1 1 1 1 1 1 1 1 1 
1 1 1 1 1 1 1 1 1 
1 1 1 1 1 1 1 1 1 
1 1 1 1 1 1 1 1 1 
1 1 1 1 1 1 1 1 1 
1 1 1 1 1 1 1 1 1 
1 1 1 1 1 1 1 1 1 
1 1 1 1 1 1 1 1 1 
1 1 1 1 1 1 1 1 1 
1 1 1 1 1 1 1 1 1 
1 1 1 1 1 1 1 1 1 
1 1 1 1 1 1 1 1 1 
1 1 1 1 1 1 1 1 1 
1 1 1 1 1 1 1 1 1 
1 1 1 1 1 1 1 1 1 
1 1 1 1 1 1 1 1 1 
1 1 1 1 1 1 1 1 1 
1 1 1 1 1 1 1 1 1 
1 1 1 1 1 1 1 1 1 
1 1 1 1 1 1 1 1 1 
1 1 1 1 1 1 
NORMALS normals float
-0.0119031 -0.0119031 -0.999858 -0.0119031 -0.999858 -0.0119031 -0.999858 -0.0119031 -0.0119031 
0.0119039 0 -0.999929 0.0120464 -0.999855 -0.0120464 0.999929 0 -0.0119039 
0 0.0119039 -0.999929 -0.999855 0.0120464 -0.0120464 0.572741 0.579641 -0.579641 
0.579641 0.572741 -0.579641 0 0.999929 -0.0119039 -0.0119039 -0.999929 0 
-0.999929 -0.0119039 0 0.0119039 -0.999929 0 0.999929 -0.0119039 0 
-0.999929 0.0119039 0 0.57735 0.57735 -0.57735 0.999858 0.0119031 -0.0119031 
-0.00846789 0.711303 -0.702835 0.00841764 0.707082 -0.707082 -0.0119031 -0.0119031 -0.999858 
-0.0119031 -0.999858 -0.0119031 -0.707082 -0.707082 -0.00841764 0.0120464 -0.0120464 -0.999855 
0.0119039 -0.999929 0 0.999929 -0.0119039 0 -0.0120464 -0.0120464 -0.999855 
-0.707107 -0.707107 0 -0.707107 -0.707107 0 0 0 -1 
0.0120473 0 -0.999927 1 0 0 -0.0119039 -0.999929 0 
-0.999929 -0.0119039 0 0.0119031 -0.999858 0.0119031 0.999858 -0.0119031 0.0119031 
-0.0119031 -0.0119031 -0.999858 -0.707082 -0.707082 -0.00841764 -0.707082 -0.707082 -0.00841764 
0 0 -1 0 0 -1 0.0120473 0 -0.999927 
1 0 0 -1 0 0 0.711303 -0.702835 0.00846789 
-0.0120464 -0.0120464 -0.999855 -0.707107 -0.707107 0 -0.707107 -0.707107 0 
0 0 -1 0 0 -1 0 0 -1 
0.0119039 0 -0.999929 0.999929 0 -0.0119039 -0.00846789 0.702835 -0.711303 
-0.999929 0 -0.0119039 0 0.70286 -0.711328 0.702835 -0.711303 -0.00846789 
0 -0.0119039 -0.999929 0 -0.0119039 -0.999929 0 -0.999929 -0.0119039 
0 -0.0119039 -0.999929 -0.702835 -0.711303 -0.00846789 0 0 -1 
0 0 -1 0 0 -1 0 0 -1 
0.0119031 0.0119031 -0.999858 0.999858 0.0119031 -0.0119031 -0.0119039 0 -0.999929 
-0.999929 0 -0.0119039 0 0 -1 0 0 -1 
0 0 -1 0 0 -1 0 0 -1 
0 0 -1 0 0 -1 0.0119031 0.0119031 -0.999858 
0.57735 0.57735 -0.57735 0.57735 0.57735 -0.57735 -0.0119039 0 -0.999929 
-0.999929 0 -0.0119039 0 0 -1 0 0 -1 
0 0 -1 0 0 -1 0 0 -1 
0 0 -1 0.0119039 0 -0.999929 0.711303 0.702835 -0.00846789 
0.707082 0.707082 -0.00841764 -0.0119039 0 -0.999929 -0.999929 0 -0.0119039 
0 0 -1 0 0 -1 0 0 -1 
0 0 -1 0 0 -1 0 0 -1 
0.0119039 0 -0.999929 0.999929 0 -0.0119039 -0.0119039 0 -0.999929 
-0.999929 0 -0.0119039 0 0 -1 0 0 -1 
0 0 -1 0 0 -1 0 0 -1 
0 0 -1 0.0119039 0 -0.999929 0.999929 0 -0.0119039 
-0.0119039 0 -0.999929 -0.999929 0 -0.0119039 0 0 -1 
0 0 -1 0 0 -1 0 0 -1 
0 0 -1 0 0 -1 0.0119039 0 -0.999929 
0.999929 0 -0.0119039 -0.0119039 0 -0.999929 -0.999929 0 -0.0119039 
0 0 -1 0 0 -1 0 0 -1 
0 0 -1 0 0 -1 0 0 -1 
0.0119031 0.0119031 -0.999858 0.999858 0.0119031 -0.0119031 -0.0120464 0.0120464 -0.999855 
-0.999929 0.0119039 0 0 0.0119039 -0.999929 0 0 -1 
0 0 -1 0 0 -1 0 0 -1 
0.0119031 0.0119031 -0.999858 0.57735 0.57735 -0.57735 0.57735 0.57735 -0.57735 
-0.0119039 0.999929 0 -0.702835 0.711303 -0.00846789 -0.711303 0.702835 -0.00846789 
-0.0119039 0 -0.999929 0 0 -1 0 0 -1 
0.0119039 0 -0.999929 0.711303 0.702835 -0.00846789 0.707082 0.707082 -0.00841764 
-0.0120464 0.0120464 -0.999855 -0.999929 0.0119039 0 0 0.0119039 -0.999929 
0 0 -1 0.0119039 0 -0.999929 0.999929 0 -0.0119039 
-0.0119039 0.999929 0 -0.702835 0.711303 -0.00846789 -0.711303 0.702835 -0.00846789 
-0.0119039 0 -0.999929 0.0119039 0 -0.999929 0.999929 0 -0.0119039 
-0.0119031 0.0119031 -0.999858 -0.999858 0.0119031 -0.0119031 0.0119031 0.0119031 -0.999858 
0.581932 -0.568076 -0.581932 -0.0119031 0.999858 -0.0119031 -0.698511 0.715548 -0.00851843 
0.568076 -0.581932 -0.581932 -0.715548 0.698511 -0.00851843 -0.0119031 -0.0119031 -0.999858 
0.0119031 -0.0119031 -0.999858 0.00841764 -0.707082 -0.707082 0.999858 -0.0119031 -0.0119031 
-0.0119031 0.0119031 -0.999858 -0.999858 0.0119031 -0.0119031 0.0119031 0.0119031 -0.999858 
0.581932 -0.568076 -0.581932 -0.0119031 0.999858 -0.0119031 -0.698511 0.715548 -0.00851843 
0.568076 -0.581932 -0.581932 -0.715548 0.698511 -0.00851843 -0.0119031 -0.0119031 -0.999858 
0.0119031 -0.0119031 -0.999858 0.00841764 -0.707082 -0.707082 0.999858 -0.0119031 -0.0119031 
-0.0119031 0.0119031 -0.999858 -0.999858 0.0119031 -0.0119031 0.0119031 0.0119031 -0.999858 
0.581932 -0.568076 -0.581932 -0.0119031 0.999858 -0.0119031 -0.698511 0.715548 -0.00851843 
0.568076 -0.581932 -0.581932 -0.715548 0.698511 -0.00851843 -0.0119031 -0.0119031 -0.999858 
0.0119039 0 -0.999929 0.00846789 -0.702835 -0.711303 0.999929 0 -0.0119039 
0 0.0119039 -0.999929 -0.999855 0.0120464 -0.0120464 0.702835 0.711303 -0.00846789 
0.711303 0.702835 -0.00846789 0 0.999929 -0.0119039 0 -0.999929 0.0119039 
-0.999855 -0.0120464 0.0120464 0.711303 -0.00846789 0.702835 0.702835 -0.00846789 0.711303 
-0.579641 -0.579641 0.572741 -0.575032 -0.575032 0.58196 0.711328 0 0.70286 
0.70286 0 0.711328 0 -0.999929 0.0119039 -0.999855 -0.0120464 0.0120464 
0.707082 -0.00841764 0.707082 0.702835 -0.00846789 0.711303 -0.0119031 -0.999858 0.0119031 
-0.999858 -0.0119031 0.0119031 -0.572741 -0.579641 0.579641 0.58196 -0.575032 0.575032 
0.579641 -0.572741 0.579641 -0.999927 0 0.0120473 0.579641 -0.572741 0.579641 
0.575032 -0.575032 0.58196 -0.579641 -0.579641 0.572741 -0.579641 -0.572741 0.579641 
0.57735 -0.57735 0.57735 0.999858 -0.0119031 0.0119031 -0.999929 0 0.0119039 
0.572741 -0.579641 0.579641 0 -0.999929 0.0119039 0 -0.999929 0.0119039 
0 -0.999929 0.0119039 -0.572741 -0.579641 0.579641 0.715574 0 -0.698537 
-0.999929 0 0.0119039 0.57735 0.57735 -0.57735 0.707082 0.00841764 -0.707082 
-0.999929 0 0.0119039 0.584278 0.577322 -0.570367 0.577322 0.584278 -0.570367 
0.00841764 0.707082 -0.707082 -0.999929 0 0.0119039 0.711328 0 -0.70286 
-0.999929 0 0.0119039 0.711328 0 -0.70286 -0.999929 0 0.0119039 
0.711328 0 -0.70286 -0.999858 0.0119031 0.0119031 0.711328 0 -0.70286 
-0.57735 0.57735 0.57735 -0.579641 0.579641 0.572741 -0.57735 0.57735 0.57735 
0.57735 0.57735 -0.57735 0.707082 0.00841764 -0.707082 -0.707082 0.707082 0.00841764 
-0.707082 0.707082 0.00841764 0.58196 0.575032 -0.575032 0.575032 0.58196 -0.575032 
0.00841764 0.707082 -0.707082 -0.57735 0.57735 0.57735 -0.579641 0.579641 0.572741 
-0.579641 0.579641 0.572741 0.711328 0 -0.70286 -0.707107 0.707107 0 
-0.711328 0.70286 0 0.58196 -0.575032 -0.575032 -0.999929 0.0119039 0 
0.572741 -0.579641 -0.579641 0.572741 -0.579641 -0.579641 0.00841764 -0.707082 -0.707082 
0.00841764 -0.707082 -0.707082 0.707082 -0.00841764 -0.707082 -0.0119039 0.999929 0 
-0.70286 0.711328 0 -0.711328 0.70286 0 0.58196 -0.575032 -0.575032 
-0.999929 0.0119039 0 0.572741 -0.579641 -0.579641 0.572741 -0.579641 -0.579641 
0.00841764 -0.707082 -0.707082 0.00841764 -0.707082 -0.707082 0.707082 -0.00841764 -0.707082 
-0.0119039 0.999929 0 -0.70286 0.711328 0 -0.711328 0.70286 0 
0.58196 -0.575032 -0.575032 -0.999929 0.0119039 0 0.572741 -0.579641 -0.579641 
0.572741 -0.579641 -0.579641 0.00841764 -0.707082 -0.707082 0.00841764 -0.707082 -0.707082 
0.707082 -0.00841764 -0.707082 -0.0119039 0.999929 0 -0.70286 0.711328 0 
-0.711328 0.70286 0 0.711303 0.00846789 -0.702835 -0.999927 0.0120473 0 
0.575032 0.58196 -0.575032 0.579641 0.579641 -0.572741 0 1 0 
0 -0.0119039 0.999929 0 0 1 0 -0.0119039 0.999929 
-0.0119031 -0.0119031 0.999858 0 -0.0119039 0.999929 0.0119039 0 0.999929 
0 0 1 -0.0119039 0 0.999929 0 0 1 
0 0 1 0.0119031 -0.0119031 0.999858 0 -0.0119039 -0.999929 
0 -0.707107 -0.707107 -0.572741 -0.579641 -0.579641 0.572741 -0.579641 -0.579641 
-0.0119039 0 0.999929 0 -0.0119039 0.999929 0 -0.0119039 0.999929 
0 -0.0119039 0.999929 0 -0.0119039 0.999929 0 -0.0119039 0.999929 
0 0 1 0 0 1 0 0 1 
-0.570367 -0.577322 0.584278 0.698511 -0.00851843 -0.715548 -0.57735 -0.57735 -0.57735 
-0.581932 -0.581932 0.568076 0 0 -1 0.572741 -0.579641 -0.579641 
0 -0.0119039 -0.999929 0.0119031 -0.0119031 -0.999858 0.00841764 -0.707082 -0.707082 
0.999858 -0.0119031 -0.0119031 -0.0119039 0 0.999929 0 0 1 
0 0 1 0 0 1 0 0 1 
0 0 1 0 0 1 0 0 1 
-0.577322 -0.570367 0.584278 -0.579641 -0.579641 0.572741 -0.579641 -0.579641 0.572741 
0.70286 0 -0.711328 0 0 -1 0 0 -1 
0.0119039 0 -0.999929 0.999929 0 -0.0119039 -0.0119039 0 0.999929 
0 0 1 0 0 1 0 0 1 