# vtk DataFile Version 3.0
vtk output
ASCII
DATASET POLYDATA
POINTS 2754 float
86 73 46.009 86 72.009 47 85.009 73 47 
87 73 46.009 87 72.009 47 88 73 46.009 
88 72.009 47 89 73 46.009 89 72.009 47 
90 73 46.009 90 72.009 47 91 73 46.009 
91 72.009 47 92 73 46.009 92 72.009 47 
93 73 46.009 93 72.009 47 94 73 46.009 
94 72.009 47 94.991 73 47 86 74 46.009 
85.009 74 47 86.991 74 47 87 73.991 47 
88 73.991 47 89 73.991 47 90 73.991 47 
91 73.991 47 92 73.991 47 93 73.991 47 
93.009 74 47 94 74 46.009 94.991 74 47 
86 74.991 47 94 74.991 47 97 68 47.009 
97 67.009 48 96.009 68 48 98 68 47.009 
98 67.009 48 98.991 68 48 96 69 47.009 
96 68.009 48 95.009 69 48 97 69 47.009 
98 69 47.009 98.991 69 48 85 70 47.009 
85 69.009 48 84.009 70 48 86 70 47.009 
86 69.009 48 87 70 47.009 87 69.009 48 
88 70 47.009 88 69.009 48 88.991 70 48 
95 70 47.009 95 69.009 48 94.009 70 48 
96 70 47.009 97 70 47.009 98 70 47.009 
98.991 70 48 85 71 47.009 84.009 71 48 
86 71 47.009 87 71 47.009 88 71 47.009 
88.991 71 48 94 71 47.009 94 70.009 48 
93.009 71 48 95 71 47.009 96 71 47.009 
97 71 47.009 98 71 47.009 98.991 71 48 
85 72 47.009 84.009 72 48 86 72 47.009 
87 72 47.009 88 72 47.009 89 71.009 48 
89 72 47.009 90 72 47.009 90 71.009 48 
91 72 47.009 91 71.009 48 92 72 47.009 
92 71.009 48 93 72 47.009 93 71.009 48 
94 72 47.009 95 72 47.009 96 72 47.009 
97 72 47.009 98 72 47.009 98.991 72 48 
85 73 47.009 84.009 73 48 95 73 47.009 
96 73 47.009 97 73 47.009 98 73 47.009 
98.991 73 48 85 74 47.009 84.009 74 48 
87 74 47.009 88 74 47.009 89 74 47.009 
90 74 47.009 91 74 47.009 92 74 47.009 
93 74 47.009 95 74 47.009 96 74 47.009 
97 74 47.009 98 74 47.009 98.991 74 48 
85 75 47.009 84.009 75 48 86 75 47.009 
87 75 47.009 88 75 47.009 89 75 47.009 
90 75 47.009 91 75 47.009 92 75 47.009 
93 75 47.009 94 75 47.009 95 75 47.009 
96 75 47.009 97 75 47.009 97.991 75 48 
98 74.991 48 85 75.991 48 86 75.991 48 
87 75.991 48 88 75.991 48 89 75.991 48 
90 75.991 48 91 75.991 48 92 75.991 48 
93 75.991 48 94 75.991 48 95 75.991 48 
96 75.991 48 97 75.991 48 97 67.009 49 
96.009 68 49 98 67.009 49 98.991 68 49 
96 68.009 49 95.009 69 49 98 69 48.991 
97.991 69 49 98 68.991 49 84 70 48.009 
84 69.009 49 83.009 70 49 85 69.009 49 
86 69.009 49 87 69.009 49 88 69.009 49 
88.991 70 49 95 69.009 49 94.009 70 49 
98 70 48.991 97.991 70 49 84 71 48.009 
83.009 71 49 88.991 71 49 94 70.009 49 
93.009 71 49 98 71 48.991 97.991 71 49 
84 72 48.009 83.009 72 49 89 71.009 49 
90 71.009 49 91 71.009 49 92 71.009 49 
93 71.009 49 98 72 48.991 97.991 72 49 
84 73 48.009 83.009 73 49 98 72.009 49 
98.991 73 49 84 73.991 49 84.009 74 49 
98.991 74 49 84.009 75 49 98 75 48.009 
98.991 75 49 85 75.991 49 86 75.991 49 
87 75.991 49 88 75.991 49 89 75.991 49 
90 75.991 49 91 75.991 49 92 75.991 49 
93 75.991 49 94 75.991 49 95 75.991 49 
96 75.991 49 97 75.991 49 98 75.991 49 
97 68 49.991 98 68 49.991 96 69 49.991 
97 69 49.991 84 70 49.991 84.009 70 50 
85 69.009 50 86 69.009 50 87 69.009 50 
88 69.009 50 88.991 70 50 95 69.009 50 
94.009 70 50 96 69.009 50 97 70 49.991 
96.991 70 50 84 71 49.991 84.009 71 50 
88.991 71 50 94 70.009 50 93.009 71 50 
97 71 49.991 96.991 71 50 84 72 49.991 
84.009 72 50 89 71.009 50 90 71.009 50 
91 71.009 50 92 71.009 50 93 71.009 50 
97 72 49.991 96.991 72 50 84 72.009 50 
83.009 73 50 97 73 49.991 96.991 73 50 
98 73 49.991 84 73.991 50 84.009 74 50 
97 73.009 50 98 73.009 50 98.991 74 50 
84.009 75 50 98.991 75 50 85 76 49.009 
84.009 76 50 86 76 49.009 87 76 49.009 
88 76 49.009 89 76 49.009 90 76 49.009 
91 76 49.009 92 76 49.009 93 76 49.009 
94 76 49.009 95 76 49.009 96 76 49.009 
97 76 49.009 98 76 49.009 98.991 76 50 
85 77 49.009 84.009 77 50 86 77 49.009 
87 77 49.009 88 77 49.009 89 77 49.009 
90 77 49.009 91 77 49.009 92 77 49.009 
93 77 49.009 94 77 49.009 95 77 49.009 
96 77 49.009 97 77 49.009 98 77 49.009 
98.991 77 50 85 77.991 50 86 77.991 50 
87 77.991 50 88 77.991 50 89 77.991 50 
90 77.991 50 91 77.991 50 92 77.991 50 
93 77.991 50 94 77.991 50 94.009 78 50 
95 78 49.009 96 78 49.009 96.991 78 50 
97 77.991 50 98 77.991 50 95 79 49.009 
94.009 79 50 95.991 79 50 96 78.991 50 
95 79.991 50 86 69 50.009 86 68.009 51 
85.009 69 51 87 69 50.009 87 68.009 51 
87.991 69 51 94 69 50.009 94 68.009 51 
93.009 69 51 95 69 50.009 95 68.009 51 
95.991 69 51 85 69.009 51 84.009 70 51 
88 69.009 51 88.991 70 51 94 70 50.009 
93.009 70 51 96 69.009 51 96.991 70 51 
84.009 71 51 89 70.009 51 89 71 50.009 
90 71 50.009 90 70.009 51 91 71 50.009 
91 70.009 51 92 71 50.009 92 70.009 51 
93 71 50.009 93 70.009 51 96.991 71 51 
84.009 72 51 96.991 72 51 84 73 50.991 
84.009 73 51 96.991 73 51 84.009 74 51 
97 73.009 51 98 74 50.991 97.991 74 51 
84.009 75 51 98 75 50.991 97.991 75 51 
84.009 76 51 98 76 50.991 97.991 76 51 
85 76.991 51 85 77 50.991 85.009 77 51 
97 77 50.991 96.991 77 51 97 76.991 51 
98 77 50.991 86 77.991 51 87 77.991 51 
88 77.991 51 89 77.991 51 90 77.991 51 
91 77.991 51 92 77.991 51 93 77.991 51 
94 77.991 51 94.009 78 51 96.991 78 51 
94.009 79 51 95.991 79 51 96 78.991 51 
95 79.991 51 87 68 51.009 87 67.009 52 
86.009 68 52 88 68 51.009 88 67.009 52 
88.991 68 52 93 68 51.009 93 67.009 52 
92.009 68 52 94 68 51.009 94 67.009 52 
95 68 51.009 95 67.009 52 96 68 51.009 
96 67.009 52 96.991 68 52 86 69 51.991 
86.009 69 52 88 69 51.009 88.991 69 52 
92 69 51.009 92 68.009 52 91.009 69 52 
93 69 51.009 96 69 51.009 96.991 69 52 
85 70 51.991 86 70 51.991 86.009 70 52 
89 70 51.009 89 69.009 52 90 70 51.009 
90 69.009 52 91 70 51.009 91 69.009 52 
92 70 51.009 93 70 51.009 96.991 70 52 
85 71 51.991 86 71 51.991 86.009 71 52 
96.991 71 52 85 72 51.991 86 72 51.991 
86.009 72 52 96.991 72 52 85 73 51.991 
86 73 51.991 86.009 73 52 96.991 73 52 
85 74 51.991 86 74 51.991 86.009 74 52 
97 74 51.991 96.991 74 52 85 75 51.991 
86 75 51.991 86.009 75 52 97 75 51.991 
96.991 75 52 85 76 51.991 86 76 51.991 
86.009 76 52 97 76 51.991 96.991 76 52 
86 77 51.991 86.009 77 52 96.991 77 52 
86.009 78 52 87 78 51.009 88 78 51.009 
88.991 78 52 89 77.991 52 90 77.991 52 
91 77.991 52 92 77.991 52 93 77.991 52 
94 77.991 52 94.009 78 52 96.991 78 52 
87 79 51.009 86.009 79 52 87.991 79 52 
88 78.991 52 94.009 79 52 96 79 51.009 
96.991 79 52 87 79.991 52 95 79.991 52 
96 79.991 52 87 67 52.009 87 66.009 53 
86.009 67 53 87.991 67 53 92 67 52.009 
92 66.009 53 91.009 67 53 93 67 52.009 
93 66.009 53 94 67 52.009 94 66.009 53 
95 67 52.009 95 66.009 53 96 67 52.009 
96 66.009 53 96.991 67 53 86.009 68 53 
88 67.009 53 88.991 68 53 92 68 52.009 
91.009 68 53 96.991 68 53 86.009 69 53 
89 68.009 53 89 69 52.009 90 69 52.009 
90 68.009 53 91 69 52.009 91 68.009 53 
96.991 69 53 86.009 70 53 96.991 70 53 
86.009 71 53 96.991 71 53 86.009 72 53 
96.991 72 53 86.009 73 53 96.991 73 53 
86.009 74 53 96.991 74 53 86.009 75 53 
96.991 75 53 86.009 76 53 96.991 76 53 
86.009 77 53 96.991 77 53 86.009 78 53 
88.991 78 53 89 77.991 53 90 77.991 53 
91 77.991 53 92 77.991 53 93 77.991 53 
94 78 52.009 93.009 78 53 96.991 78 53 
86.009 79 53 87.991 79 53 88 78.991 53 
94 78.991 53 94.009 79 53 96 79 52.991 
95.991 79 53 96 78.991 53 87 79.991 53 
95 79.991 53 87 66 53.009 87 65.009 54 
86.009 66 54 88 66 53.009 88 65.009 54 
88.991 66 54 91 66 53.009 91 65.009 54 
90.009 66 54 92 66 53.009 92 65.009 54 
93 66 53.009 93 65.009 54 94 66 53.009 
94 65.009 54 95 66 53.009 95 65.009 54 
96 66 53.009 96 65.009 54 96.991 66 54 
86.009 67 54 88 67 53.009 88.991 67 54 
90 67 53.009 90 66.009 54 89.009 67 54 
91 67 53.009 96.991 67 54 86.009 68 54 
89 68 53.009 89 67.009 54 90 68 53.009 
91 68 53.009 96.991 68 54 86.009 69 54 
96.991 69 54 86.009 70 54 96.991 70 54 
86.009 71 54 96.991 71 54 86.009 72 54 
96.991 72 54 86.009 73 54 96.991 73 54 
86.009 74 54 96.991 74 54 86.009 75 54 
96.991 75 54 86.009 76 54 96.991 76 54 
86.009 77 54 96.991 77 54 86.009 78 54 
88.991 78 54 89 77.991 54 90 77.991 54 
91 78 53.009 90.009 78 54 92 78 53.009 
93 78 53.009 96.991 78 54 86.009 79 54 
87.991 79 54 88 78.991 54 91 79 53.009 
90.009 79 54 92 79 53.009 93 79 53.009 
94 79 53.009 95.991 79 54 96 78.991 54 
87 79.991 54 91 79.991 54 92 79.991 54 
93 79.991 54 94 79.991 54 95 79.991 54 
87 65 54.009 87 64.009 55 86.009 65 55 
87.991 65 55 94 65 54.009 94 64.009 55 
93.009 65 55 95 65 54.009 95 64.009 55 
96 65 54.009 96 64.009 55 96.991 65 55 
86.009 66 55 88 65.009 55 88.991 66 55 
90 66 54.009 90 65.009 55 89.009 66 55 
91 65.009 55 92 65.009 55 93 65.009 55 
96.991 66 55 86.009 67 55 89 66.009 55 
89 67 54.009 96.991 67 55 86.009 68 55 
96.991 68 55 86.009 69 55 96.991 69 55 
86.009 70 55 96.991 70 55 86.009 71 55 
96.991 71 55 86.009 72 55 96.991 72 55 
86.009 73 55 96.991 73 55 86.009 74 55 
96.991 74 55 86.009 75 55 96.991 75 55 
86.009 76 55 96.991 76 55 86.009 77 55 
96.991 77 55 86.009 78 55 88.991 78 55 
89 77.991 55 90 78 54.009 89.009 78 55 
96.991 78 55 86.009 79 55 87.991 79 55 
88 78.991 55 90 78.991 55 90.009 79 55 
95.991 79 55 96 78.991 55 87 79.991 55 
91 79.991 55 92 79.991 55 93 79.991 55 
94 79.991 55 95 79.991 55 87 64 55.009 
87 63.009 56 86.009 64 56 88 64 55.009 
88 63.009 56 88.991 64 56 95 64 55.009 
95 63.009 56 94.009 64 56 96 64 55.009 
96 63.009 56 96.991 64 56 86.009 65 56 
88 65 55.009 88.991 65 56 94 64.009 56 
93.009 65 56 96.991 65 56 86.009 66 56 
89 66 55.009 89 65.009 56 90 65.009 56 
91 65.009 56 92 65.009 56 93 65.009 56 
96.991 66 56 86.009 67 56 96.991 67 56 
86.009 68 56 96.991 68 56 86.009 69 56 
96.991 69 56 86.009 70 56 96.991 70 56 
86.009 71 56 96.991 71 56 86.009 72 56 
96.991 72 56 86.009 73 56 96.991 73 56 
86.009 74 56 96.991 74 56 86.009 75 56 
96.991 75 56 86.009 76 56 96.991 76 56 
86.009 77 56 96.991 77 56 86.009 78 56 
89 78 55.009 96.991 78 56 86.009 79 56 
88 79 55.009 89 79 55.009 90 79 55.009 
95.991 79 56 96 78.991 56 87 79.991 56 
88 79.991 56 89 79.991 56 90 79.991 56 
91 79.991 56 92 79.991 56 93 79.991 56 
94 79.991 56 95 79.991 56 87 63.009 57 
86.009 64 57 88 63.009 57 88.991 64 57 
[...]
POINT_DATA 2754
SCALARS scalars float
LOOKUP_TABLE default
1 1 1 1 1 1 1 1 1 
1 1 1 1 1 1 1 1 1 
1 1 1 1 1 1 1 1 1 
1 1 1 1 1 1 1 1 1 
1 1 1 1 1 1 1 1 1 
1 1 1 1 1 1 1 1 1 
1 1 1 1 1 1 1 1 1 
1 1 1 1 1 1 1 1 1 
1 1 1 1 1 1 1 1 1 
1 1 1 1 1 1 1 1 1 
1 1 1 1 1 1 1 1 1 
1 1 1 1 1 1 1 1 1 
1 1 1 1 1 1 1 1 1 
1 1 1 1 1 1 1 1 1 
1 1 1 1 1 1 1 1 1 
1 1 1 1 1 1 1 1 1 
1 1 1 1 1 1 1 1 1 
1 1 1 1 1 1 1 1 1 
1 1 1 1 1 1 1 1 1 
1 1 1 1 1 1 1 1 1 
1 1 1 1 1 1 1 1 1 
1 1 1 1 1 1 1 1 1 
1 1 1 1 1 1 1 1 1 
1 1 1 1 1 1 1 1 1 
1 1 1 1 1 1 1 1 1 
1 1 1 1 1 1 1 1 1 
1 1 1 1 1 1 1 1 1 
1 1 1 1 1 1 1 1 1 
1 1 1 1 1 1 1 1 1 
1 1 1 1 1 1 1 1 1 
1 1 1 1 1 1 1 1 1 
1 1 1 1 1 1 1 1 1 
1 1 1 1 1 1 1 1 1 
1 1 1 1 1 1 1 1 1 
1 1 1 1 1 1 1 1 1 
1 1 1 1 1 1 1 1 1 
1 1 1 1 1 1 1 1 1 
1 1 1 1 1 1 1 1 1 
1 1 1 1 1 1 1 1 1 
1 1 1 1 1 1 1 1 1 
1 1 1 1 1 1 1 1 1 
1 1 1 1 1 1 1 1 1 
1 1 1 1 1 1 1 1 1 
1 1 1 1 1 1 1 1 1 
1 1 1 1 1 1 1 1 1 
1 1 1 1 1 1 1 1 1 
1 1 1 1 1 1 1 1 1 
1 1 1 1 1 1 1 1 1 
1 1 1 1 1 1 1 1 1 
1 1 1 1 1 1 1 1 1 
1 1 1 1 1 1 1 1 1 
1 1 1 1 1 1 1 1 1 
1 1 1 1 1 1 1 1 1 
1 1 1 1 1 1 1 1 1 
1 1 1 1 1 1 1 1 1 
1 1 1 1 1 1 1 1 1 
1 1 1 1 1 1 1 1 1 
1 1 1 1 1 1 1 1 1 
1 1 1 1 1 1 1 1 1 
1 1 1 1 1 1 1 1 1 
1 1 1 1 1 1 1 1 1 
1 1 1 1 1 1 1 1 1 
1 1 1 1 1 1 1 1 1 
1 1 1 1 1 1 1 1 1 
1 1 1 1 1 1 1 1 1 
1 1 1 1 1 1 1 1 1 
1 1 1 1 1 1 1 1 1 
1 1 1 1 1 1 1 1 1 
1 1 1 1 1 1 1 1 1 
1 1 1 1 1 1 1 1 1 
1 1 1 1 1 1 1 1 1 
1 1 1 1 1 1 1 1 1 
1 1 1 1 1 1 1 1 1 
1 1 1 1 1 1 1 1 1 
1 1 1 1 1 1 1 1 1 
1 1 1 1 1 1 1 1 1 
1 1 1 1 1 1 1 1 1 
1 1 1 1 1 1 1 1 1 
1 1 1 1 1 1 1 1 1 
1 1 1 1 1 1 1 1 1 
1 1 1 1 1 1 1 1 1 
1 1 1 1 1 1 1 1 1 
1 1 1 1 1 1 1 1 1 
1 1 1 1 1 1 1 1 1 
1 1 1 1 1 1 1 1 1 
1 1 1 1 1 1 1 1 1 
1 1 1 1 1 1 1 1 1 
1 1 1 1 1 1 1 1 1 
1 1 1 1 1 1 1 1 1 
1 1 1 1 1 1 1 1 1 
1 1 1 1 1 1 1 1 1 
1 1 1 1 1 1 1 1 1 
1 1 1 1 1 1 1 1 1 
1 1 1 1 1 1 1 1 1 
1 1 1 1 1 1 1 1 1 
1 1 1 1 1 1 1 1 1 
1 1 1 1 1 1 1 1 1 
1 1 1 1 1 1 1 1 1 
1 1 1 1 1 1 1 1 1 
1 1 1 1 1 1 1 1 1 
1 1 1 1 1 1 1 1 1 
1 1 1 1 1 1 1 1 1 
1 1 1 1 1 1 1 1 1 
1 1 1 1 1 1 1 1 1 
1 1 1 1 1 1 1 1 1 
1 1 1 1 1 1 1 1 1 
1 1 1 1 1 1 1 1 1 
1 1 1 1 1 1 1 1 1 
1 1 1 1 1 1 1 1 1 
1 1 1 1 1 1 1 1 1 
1 1 1 1 1 1 1 1 1 
1 1 1 1 1 1 1 1 1 
1 1 1 1 1 1 1 1 1 
1 1 1 1 1 1 1 1 1 
1 1 1 1 1 1 1 1 1 
1 1 1 1 1 1 1 1 1 
1 1 1 1 1 1 1 1 1 
1 1 1 1 1 1 1 1 1 
1 1 1 1 1 1 1 1 1 
1 1 1 1 1 1 1 1 1 
1 1 1 1 1 1 1 1 1 
1 1 1 1 1 1 1 1 1 
1 1 1 1 1 1 1 1 1 
1 1 1 1 1 1 1 1 1 
1 1 1 1 1 1 1 1 1 
1 1 1 1 1 1 1 1 1 
1 1 1 1 1 1 1 1 1 
1 1 1 1 1 1 1 1 1 
1 1 1 1 1 1 1 1 1 
1 1 1 1 1 1 1 1 1 
1 1 1 1 1 1 1 1 1 
1 1 1 1 1 1 1 1 1 
1 1 1 1 1 1 1 1 1 
1 1 1 1 1 1 1 1 1 
1 1 1 1 1 1 1 1 1 
1 1 1 1 1 1 1 1 1 
1 1 1 1 1 1 1 1 1 
1 1 1 1 1 1 1 1 1 
1 1 1 1 1 1 1 1 1 
1 1 1 1 1 1 1 1 1 
1 1 1 1 1 1 1 1 1 
1 1 1 1 1 1 1 1 1 
1 1 1 1 1 1 1 1 1 
1 1 1 1 1 1 1 1 1 
1 1 1 1 1 1 1 1 1 
1 1 1 1 1 1 1 1 1 
1 1 1 1 1 1 1 1 1 
1 1 1 1 1 1 1 1 1 
1 1 1 1 1 1 1 1 1 
1 1 1 1 1 1 1 1 1 
1 1 1 1 1 1 1 1 1 
1 1 1 1 1 1 1 1 1 
1 1 1 1 1 1 1 1 1 
1 1 1 1 1 1 1 1 1 
1 1 1 1 1 1 1 1 1 
1 1 1 1 1 1 1 1 1 
1 1 1 1 1 1 1 1 1 
1 1 1 1 1 1 1 1 1 
1 1 1 1 1 1 1 1 1 
1 1 1 1 1 1 1 1 1 
1 1 1 1 1 1 1 1 1 
1 1 1 1 1 1 1 1 1 
1 1 1 1 1 1 1 1 1 
1 1 1 1 1 1 1 1 1 
1 1 1 1 1 1 1 1 1 
1 1 1 1 1 1 1 1 1 
1 1 1 1 1 1 1 1 1 
1 1 1 1 1 1 1 1 1 
1 1 1 1 1 1 1 1 1 
1 1 1 1 1 1 1 1 1 
1 1 1 1 1 1 1 1 1 
1 1 1 1 1 1 1 1 1 
1 1 1 1 1 1 1 1 1 
1 1 1 1 1 1 1 1 1 
1 1 1 1 1 1 1 1 1 
1 1 1 1 1 1 1 1 1 
1 1 1 1 1 1 1 1 1 
1 1 1 1 1 1 1 1 1 
1 1 1 1 1 1 1 1 1 
1 1 1 1 1 1 1 1 1 
1 1 1 1 1 1 1 1 1 
1 1 1 1 1 1 1 1 1 
1 1 1 1 1 1 1 1 1 
1 1 1 1 1 1 1 1 1 
1 1 1 1 1 1 1 1 1 
1 1 1 1 1 1 1 1 1 
1 1 1 1 1 1 1 1 1 
1 1 1 1 1 1 1 1 1 
1 1 1 1 1 1 1 1 1 
1 1 1 1 1 1 1 1 1 
1 1 1 1 1 1 1 1 1 
1 1 1 1 1 1 1 1 1 
1 1 1 1 1 1 1 1 1 
1 1 1 1 1 1 1 1 1 
1 1 1 1 1 1 1 1 1 
1 1 1 1 1 1 1 1 1 
1 1 1 1 1 1 1 1 1 
1 1 1 1 1 1 1 1 1 
1 1 1 1 1 1 1 1 1 
1 1 1 1 1 1 1 1 1 
1 1 1 1 1 1 1 1 1 
1 1 1 1 1 1 1 1 1 
1 1 1 1 1 1 1 1 1 
1 1 1 1 1 1 1 1 1 
1 1 1 1 1 1 1 1 1 
1 1 1 1 1 1 1 1 1 
1 1 1 1 1 1 1 1 1 
1 1 1 1 1 1 1 1 1 
1 1 1 1 1 1 1 1 1 
1 1 1 1 1 1 1 1 1 
1 1 1 1 1 1 1 1 1 
1 1 1 1 1 1 1 1 1 
1 1 1 1 1 1 1 1 1 
1 1 1 1 1 1 1 1 1 
1 1 1 1 1 1 1 1 1 
1 1 1 1 1 1 1 1 1 
1 1 1 1 1 1 1 1 1 
1 1 1 1 1 1 1 1 1 
1 1 1 1 1 1 1 1 1 
1 1 1 1 1 1 1 1 1 
1 1 1 1 1 1 1 1 1 
1 1 1 1 1 1 1 1 1 
1 1 1 1 1 1 1 1 1 
1 1 1 1 1 1 1 1 1 
1 1 1 1 1 1 1 1 1 
1 1 1 1 1 1 1 1 1 
1 1 1 1 1 1 1 1 1 
1 1 1 1 1 1 1 1 1 
1 1 1 1 1 1 1 1 1 
1 1 1 1 1 1 1 1 1 
1 1 1 1 1 1 1 1 1 
1 1 1 1 1 1 1 1 1 
1 1 1 1 1 1 1 1 1 
1 1 1 1 1 1 1 1 1 
1 1 1 1 1 1 1 1 1 
1 1 1 1 1 1 1 1 1 
1 1 1 1 1 1 1 1 1 
1 1 1 1 1 1 1 1 1 
1 1 1 1 1 1 1 1 1 
1 1 1 1 1 1 1 1 1 
1 1 1 1 1 1 1 1 1 
1 1 1 1 1 1 1 1 1 
1 1 1 1 1 1 1 1 1 
1 1 1 1 1 1 1 1 1 
1 1 1 1 1 1 1 1 1 
1 1 1 1 1 1 1 1 1 
1 1 1 1 1 1 1 1 1 
1 1 1 1 1 1 1 1 1 
1 1 1 1 1 1 1 1 1 
1 1 1 1 1 1 1 1 1 
1 1 1 1 1 1 1 1 1 
1 1 1 1 1 1 1 1 1 
1 1 1 1 1 1 1 1 1 
1 1 1 1 1 1 1 1 1 
1 1 1 1 1 1 1 1 1 
1 1 1 1 1 1 1 1 1 
1 1 1 1 1 1 1 1 1 
1 1 1 1 1 1 1 1 1 
1 1 1 1 1 1 1 1 1 
1 1 1 1 1 1 1 1 1 
1 1 1 1 1 1 1 1 1 
1 1 1 1 1 1 1 1 1 
1 1 1 1 1 1 1 1 1 
1 1 1 1 1 1 1 1 1 
1 1 1 1 1 1 1 1 1 
1 1 1 1 1 1 1 1 1 
1 1 1 1 1 1 1 1 1 
1 1 1 1 1 1 1 1 1 
1 1 1 1 1 1 1 1 1 
1 1 1 1 1 1 1 1 1 
1 1 1 1 1 1 1 1 1 
1 1 1 1 1 1 1 1 1 
1 1 1 1 1 1 1 1 1 
1 1 1 1 1 1 1 1 1 
1 1 1 1 1 1 1 1 1 
1 1 1 1 1 1 1 1 1 
1 1 1 1 1 1 1 1 1 
1 1 1 1 1 1 1 1 1 
1 1 1 1 1 1 1 1 1 
1 1 1 1 1 1 1 1 1 
1 1 1 1 1 1 1 1 1 
1 1 1 1 1 1 1 1 1 
1 1 1 1 1 1 1 1 1 
1 1 1 1 1 1 1 1 1 
1 1 1 1 1 1 1 1 1 
1 1 1 1 1 1 1 1 1 
1 1 1 1 1 1 1 1 1 
1 1 1 1 1 1 1 1 1 
1 1 1 1 1 1 1 1 1 
1 1 1 1 1 1 1 1 1 
1 1 1 1 1 1 1 1 1 
1 1 1 1 1 1 1 1 1 
1 1 1 1 1 1 1 1 1 
1 1 1 1 1 1 1 1 1 
1 1 1 1 1 1 1 1 1 
1 1 1 1 1 1 1 1 1 
1 1 1 1 1 1 1 1 1 
1 1 1 1 1 1 1 1 1 
1 1 1 1 1 1 1 1 1 
1 1 1 1 1 1 1 1 1 
1 1 1 1 1 1 1 1 1 
1 1 1 1 1 1 1 1 1 
1 1 1 1 1 1 1 1 1 
1 1 1 1 1 1 1 1 1 
1 1 1 1 1 1 1 1 1 
1 1 1 1 1 1 1 1 1 

NORMALS normals float
-0.00900828 -0.00900828 -0.999919 -0.0063702 -0.707092 -0.707092 -0.707092 -0.0063702 -0.707092 
0 0 -1 0 -0.7039 -0.710299 0 0 -1 
0 -0.7039 -0.710299 0 0 -1 0 -0.7039 -0.710299 
0 0 -1 0 -0.7039 -0.710299 0 0 -1 
0 -0.7039 -0.710299 0 0 -1 0 -0.7039 -0.710299 
0 0 -1 0 -0.7039 -0.710299 0.00900828 -0.00900828 -0.999919 
0.0063702 -0.707092 -0.707092 0.707092 -0.0063702 -0.707092 0 0.00900864 -0.999959 
-0.703886 0.00639896 -0.710285 0.573867 0.579084 -0.579084 0.575601 0.575601 -0.580833 
0 0.7039 -0.710299 0 0.7039 -0.710299 0 0.7039 -0.710299 
0 0.7039 -0.710299 0 0.7039 -0.710299 -0.575601 0.575601 -0.580833 
-0.573867 0.579084 -0.579084 0 0.00900864 -0.999959 0.703886 0.00639896 -0.710285 
0 0.707107 -0.707107 0 0.707107 -0.707107 -0.00900828 -0.00900828 -0.999919 
-0.00900828 -0.999919 -0.00900828 -0.707092 -0.707092 -0.0063702 0.00900828 -0.00900828 -0.999919 
0.00900828 -0.999919 -0.00900828 0.999919 -0.00900828 -0.00900828 -0.00900828 -0.00900828 -0.999919 
-0.707092 -0.707092 -0.0063702 -0.707092 -0.707092 -0.0063702 0 0 -1 
0.00909053 0 -0.999959 1 0 0 -0.00900828 -0.00900828 -0.999919 
-0.00900828 -0.999919 -0.00900828 -0.707092 -0.0063702 -0.707092 0 -0.00900864 -0.999959 
0 -0.999959 -0.00900864 0 -0.00900864 -0.999959 0 -0.999959 -0.00900864 
0.00900828 -0.00900828 -0.999919 0.00900828 -0.999919 -0.00900828 0.999919 -0.00900828 -0.00900828 
-0.00900828 -0.00900828 -0.999919 -0.707092 -0.707092 -0.0063702 -0.707092 -0.707092 -0.0063702 
0 0 -1 0 0 -1 0.00909053 0 -0.999959 
1 0 0 -0.00900864 0 -0.999959 -0.707107 0 -0.707107 
0 0 -1 0 0 -1 0.00900864 0 -0.999959 
0.710285 -0.703886 -0.00639896 -0.00900828 -0.00900828 -0.999919 -0.707092 -0.707092 -0.0063702 
-0.707092 -0.707092 -0.0063702 0 0 -1 0 0 -1 
0 0 -1 0.00909053 0 -0.999959 1 0 0 
-0.00900864 0 -0.999959 -0.707107 0 -0.707107 0 -0.7039 -0.710299 
0 -0.7039 -0.710299 0 -0.7039 -0.710299 0.703886 -0.710285 -0.00639896 
0 -0.707107 -0.707107 0 -0.707107 -0.707107 0 -0.999959 -0.00900864 
0 -0.707107 -0.707107 0 -0.999959 -0.00900864 0 -0.707107 -0.707107 
0 -0.999959 -0.00900864 0 -0.707107 -0.707107 -0.703886 -0.710285 -0.00639896 
0 -0.7039 -0.710299 0 0 -1 0 0 -1 
0 0 -1 0.00909053 0 -0.999959 1 0 0 
-0.707107 0 -0.707107 -0.707107 0 -0.707107 0.7039 0 -0.710299 
0 0 -1 0 0 -1 0.00900864 0 -0.999959 
0.999959 0 -0.00900864 -0.707107 0 -0.707107 -0.999959 0 -0.00900864 
0.575601 0.575601 -0.580833 0 0.7039 -0.710299 0 0.7039 -0.710299 
0 0.7039 -0.710299 0 0.7039 -0.710299 0 0.7039 -0.710299 
-0.575601 0.575601 -0.580833 0.7039 0 -0.710299 0 0 -1 
0 0 -1 0.00900828 0.00900828 -0.999919 0.999919 0.00900828 -0.00900828 
-0.00900828 0.00900828 -0.999919 -0.999919 0.00900828 -0.00900828 0 0.707107 -0.707107 
0 0.00900864 -0.999959 0 0.00900864 -0.999959 0 0.00900864 -0.999959 
0 0.00900864 -0.999959 0 0.00900864 -0.999959 0 0.00900864 -0.999959 
0 0.00900864 -0.999959 0 0.707107 -0.707107 0 0.00900864 -0.999959 
0 0.00900864 -0.999959 0.00900828 0.00900828 -0.999919 0.57735 0.57735 -0.57735 
0.57735 0.57735 -0.57735 -0.00900828 0.999919 -0.00900828 0 0.999959 -0.00900864 
0 0.999959 -0.00900864 0 0.999959 -0.00900864 0 0.999959 -0.00900864 
0 0.999959 -0.00900864 0 0.999959 -0.00900864 0 0.999959 -0.00900864 
0 0.999959 -0.00900864 0 0.999959 -0.00900864 0 0.999959 -0.00900864 
0 0.999959 -0.00900864 0.00900828 0.999919 -0.00900828 -0.00900828 -0.999919 0.00900828 
-0.707092 -0.707092 0.0063702 0.00909016 -0.999917 0.00909016 0.999959 0 0.00900864 
-0.707092 -0.707092 0.0063702 -0.707092 -0.707092 0.0063702 0.580833 0.575601 0.575601 
0.579084 0.573867 0.579084 0.579084 0.573867 0.579084 -0.710285 -0.00639896 -0.703886 
-0.00900864 -0.999959 0 -0.999959 -0.00900864 0 0 -1 0 
0 -1 0 0 -1 0 0.00900864 -0.999959 0 
0.999959 -0.00900864 0 -0.707107 -0.707107 0 -0.707107 -0.707107 0 
0.710299 0 0.7039 0.707107 0 0.707107 -0.710299 0 -0.7039 
-1 0 0 0.710299 -0.7039 0 -0.707107 -0.707107 0 
-0.707107 -0.707107 0 0.710299 0 0.7039 0.707107 0 0.707107 
-0.710299 0 -0.7039 -1 0 0 0.7039 -0.710299 0 
0 -1 0 0 -1 0 0 -1 0 
-0.7039 -0.710299 0 0.580833 -0.575601 0.575601 0.579084 -0.573867 0.579084 
-0.707092 0.0063702 -0.707092 -0.999919 0.00900828 -0.00900828 0.57735 -0.57735 0.57735 
0.999919 -0.00900828 0.00900828 -0.707092 0.707092 -0.0063702 -0.710299 0.7039 0 
1 0 0 -0.999959 0.00900864 0 0.57735 0.57735 -0.57735 
0.999919 0.00900828 -0.00900828 -0.00639896 0.710285 -0.703886 0 0.710299 -0.7039 
0 0.710299 -0.7039 0 0.710299 -0.7039 0 0.710299 -0.7039 
0 0.710299 -0.7039 0 0.710299 -0.7039 0 0.710299 -0.7039 
0 0.710299 -0.7039 0 0.710299 -0.7039 0 0.710299 -0.7039 
0 0.710299 -0.7039 0 0.710299 -0.7039 0.0063702 0.707092 -0.707092 
-0.00900828 -0.00900828 0.999919 0.00900864 0 0.999959 -0.0063702 -0.707092 0.707092 
0.00900864 0 0.999959 -0.710285 -0.00639896 0.703886 -0.710285 -0.00639896 0.703886 
-0.00900864 -0.999959 0 0 -0.710299 -0.7039 0 -0.710299 -0.7039 
0.00900864 -0.999959 0 0.999959 -0.00900864 0 -0.00639896 -0.710285 -0.703886 
-0.579084 -0.579084 -0.573867 0.00639896 -0.710285 0.703886 0.707107 0 0.707107 
0.710285 -0.00639896 0.703886 -0.710299 0 0.7039 -0.710299 0 0.7039 
0.580833 -0.575601 -0.575601 -0.579084 -0.579084 -0.573867 -0.579084 -0.579084 -0.573867 
0.707107 0 0.707107 0.710299 0 0.7039 -0.580833 -0.575601 0.575601 
-0.580833 -0.575601 0.575601 0.575601 -0.580833 -0.575601 0 -0.710299 -0.7039 
0 -0.710299 -0.7039 0 -0.710299 -0.7039 -0.575601 -0.580833 -0.575601 
0.707107 0 0.707107 0.710299 0 0.7039 -0.579084 -0.573867 0.579084 
-0.999959 0 0.00900864 0.575601 -0.575601 0.580833 0.580833 -0.575601 0.575601 
0.0063702 -0.707092 0.707092 -0.710285 0.703886 0.00639896 -0.710299 0.7039 0 
0.575601 -0.580833 0.575601 0.0063702 -0.707092 0.707092 0.999919 -0.00900828 0.00900828 
-1 0 0 0.999959 0 0.00900864 -0.00639896 0.703886 -0.710285 
-0.999959 0 -0.00900864 0 0.7039 -0.710299 0 0.7039 -0.710299 
0 0.7039 -0.710299 0 0.7039 -0.710299 0 0.7039 -0.710299 
0 0.7039 -0.710299 0 0.7039 -0.710299 0 0.7039 -0.710299 
0 0.7039 -0.710299 0 0.7039 -0.710299 0 0.7039 -0.710299 
0 0.7039 -0.710299 0.00642811 0.707092 -0.707092 1 0 0 
-0.00909016 0.00909016 -0.999917 -0.999959 0.00900864 0 0 0.00900864 -0.999959 
0 0.00900864 -0.999959 0 0.00900864 -0.999959 0 0.00900864 -0.999959 
0 0.00900864 -0.999959 0 0.00900864 -0.999959 0 0.00900864 -0.999959 
0 0.00900864 -0.999959 0 0.00900864 -0.999959 0 0 -1 
0 0 -1 0 0.00909053 -0.999959 0.00909016 0.00909016 -0.999917 
0.999959 0.00900864 0 -0.00900864 0.999959 0 0 0.999959 -0.00900864 
0 0.999959 -0.00900864 0 0.999959 -0.00900864 0 0.999959 -0.00900864 
0 0.999959 -0.00900864 0 0.999959 -0.00900864 0 0.999959 -0.00900864 
0 0.999959 -0.00900864 -0.703886 0.710285 -0.00639896 -0.710285 0.703886 -0.00639896 
-0.00900864 0 -0.999959 0.00900828 0.00900828 -0.999919 0.707092 0.707092 -0.0063702 
0.7039 0.710299 0 0.00900864 0.999959 0 0 0.00900864 -0.999959 
-0.999917 0.00909016 -0.00909016 0.703886 0.710285 -0.00639896 0.707092 0.707092 -0.0063702 
0 0.999959 -0.00900864 -0.00639896 -0.710285 -0.703886 -0.00900864 -0.999959 0 
-0.707107 -0.707107 0 0.0063702 -0.707092 -0.707092 0.0063702 -0.707092 -0.707092 
0.57735 -0.57735 -0.57735 -0.00900828 -0.00900828 -0.999919 -0.0063702 -0.707092 -0.707092 
-0.707092 -0.0063702 -0.707092 0.0063702 -0.707092 -0.707092 0.0063702 -0.707092 -0.707092 
0.57735 -0.57735 -0.57735 -0.707092 -0.707092 0.0063702 -0.999919 -0.00900828 0.00900828 
0.579084 -0.579084 -0.573867 0.579084 -0.579084 -0.573867 -0.579084 -0.573867 -0.579084 
-0.579084 -0.573867 -0.579084 0.579084 -0.579084 -0.573867 0.999959 -0.00900864 0 
-0.999959 0 0.00900864 0.573867 -0.579084 -0.579084 0.573867 -0.579084 -0.579084 
0 -0.707107 -0.707107 0 -0.707107 -0.707107 0 -0.707107 -0.707107 
0 -0.707107 -0.707107 0 -0.707107 -0.707107 0 -0.707107 -0.707107 
-0.573867 -0.579084 -0.579084 -0.573867 -0.579084 -0.579084 1 0 0 
-0.999959 0 0.00900864 1 0 0 -0.707107 0 0.707107 
-0.707107 0 0.707107 0.710299 -0.7039 0 -0.999959 0 0.00900864 
0.707092 -0.707092 0.0063702 0.707092 -0.0063702 0.707092 0.707092 -0.0063702 0.707092 
-0.999959 0 0.00900864 0.707107 0 0.707107 0.707107 0 0.707107 
-0.999919 0.00900828 0.00900828 0.710299 0 0.7039 0.707092 0.0063702 0.707092 
-0.57735 0.57735 0.57735 -0.579084 0.579084 0.573867 -0.57735 0.57735 0.57735 
0.575601 0.580833 0.575601 0.580833 0.575601 0.575601 0.57735 0.57735 0.57735 
0.00909016 0.00909016 0.999917 -0.00900828 0.999919 0.00900828 0 0.710299 -0.7039 
0 0.710299 -0.7039 0 1 0 0 1 0 
0 1 0 0 1 0 0 1 0 
-0.7039 0.710299 0 -0.710299 0.7039 0 0.999959 0.00900864 0 
-0.999959 0.00909053 0 0.575601 0.580833 -0.575601 0.579084 0.579084 -0.573867 
0 1 0 -0.0063702 -0.707092 -0.707092 -0.0063702 -0.707092 -0.707092 
-0.999919 -0.00900828 -0.00900828 0.00900828 -0.00900828 -0.999919 0.00900828 -0.999919 -0.00900828 
0.999919 -0.00900828 -0.00900828 -0.00900828 -0.00900828 -0.999919 -0.0063702 -0.707092 -0.707092 
-0.57735 -0.57735 -0.57735 0 -0.707107 -0.707107 0 -0.707107 -0.707107 
0 -0.707107 -0.707107 0 -0.707107 -0.707107 0.00900828 -0.00900828 -0.999919 
0.0063702 -0.707092 -0.707092 0.999919 -0.00900828 -0.00900828 -0.710285 -0.00639896 0.703886 
-0.710299 0 0.7039 0.579084 -0.573867 -0.579084 0.579084 -0.573867 -0.579084 
-0.00900828 -0.00900828 -0.999919 -0.57735 -0.57735 -0.57735 -0.57735 -0.57735 -0.57735 
-0.7039 0 -0.710299 0.579084 -0.573867 -0.579084 0.999959 0 -0.00900864 
-0.00900828 -0.00900828 0.999919 -0.7039 0 0.710299 -0.710299 0 0.7039 
0.573867 -0.579084 -0.579084 0.573867 -0.579084 -0.579084 0 -0.707107 -0.707107 
0 -0.707107 -0.707107 0 -0.707107 -0.707107 -0.573867 -0.579084 -0.579084 
0 -0.7039 -0.710299 -0.575601 -0.575601 -0.580833 1 0 0 
-0.00900864 0 0.999959 -0.7039 0 0.710299 -0.710299 0 0.7039 
1 0 0 -0.00900864 0 0.999959 -0.7039 0 0.710299 
-0.710299 0 0.7039 1 0 0 -0.00900864 0 0.999959 
-0.7039 0 0.710299 -0.710299 0 0.7039 1 0 0 
-0.00900864 0 0.999959 -0.7039 0 0.710299 -0.710299 0 0.7039 
0.707092 -0.0063702 0.707092 0.710299 0 0.7039 -0.00900864 0 0.999959 
-0.7039 0 0.710299 -0.710299 0 0.7039 0.707107 0 0.707107 
0.710299 0 0.7039 -0.00900828 0.00900828 0.999919 -0.7039 0 0.710299 
-0.710299 0 0.7039 0.707092 0.0063702 0.707092 0.710299 0 0.7039 
-0.707092 0.0063702 0.707092 -0.710299 0 0.7039 1 0 0 
-0.999959 0 -0.00900864 -0.00639896 0.703886 -0.710285 0.0063702 0.707092 -0.707092 
0.707092 0.707092 -0.0063702 0.7039 0.710299 0 0 1 0 
0 1 0 0 1 0 0 1 0 
-0.575601 0.580833 -0.575601 -0.580833 0.575601 -0.575601 1 0 0 
0 0.00900864 -0.999959 -0.999917 0.00909016 -0.00909016 0.703886 0.710285 -0.00639896 
0.707092 0.707092 -0.0063702 -0.999959 0.00900864 0 0.579084 0.579084 -0.573867 
0.999959 0.00900864 0 0 0.999959 -0.00900864 -0.00900864 0.999959 0 
0.00900864 0.999959 0 0 -0.707107 -0.707107 0 -0.707107 -0.707107 
-0.999917 -0.00909016 -0.00909016 0.573867 -0.579084 -0.579084 -0.00900828 -0.00900828 -0.999919 
-0.0063702 -0.707092 -0.707092 -0.707092 -0.0063702 -0.707092 0 -0.707107 -0.707107 
0 -0.707107 -0.707107 0 -0.707107 -0.707107 0 -0.707107 -0.707107 
0 -0.707107 -0.707107 0 -0.707107 -0.707107 0.0063702 -0.707092 -0.707092 
0.0063702 -0.707092 -0.707092 0.999919 -0.00900828 -0.00900828 -1 0 0 
0.579084 -0.579084 -0.573867 0.579084 -0.579084 -0.573867 -0.579084 -0.573867 -0.579084 
-0.579084 -0.573867 -0.579084 1 0 0 -1 0 0 
0.573867 -0.579084 -0.579084 0.573867 -0.579084 -0.579084 0 -0.707107 -0.707107 
0 -0.707107 -0.707107 -0.573867 -0.579084 -0.579084 -0.573867 -0.579084 -0.579084 
1 0 0 -1 0 0 1 0 0 
-1 0 0 1 0 0 -1 0 0 
1 0 0 -1 0 0 1 0 0 
-1 0 0 1 0 0 -1 0 0 
1 0 0 -1 0 0 1 0 0 
-1 0 0 1 0 0 -1 0 0 
0.707107 0.707107 0 0.7039 0.710299 0 0 1 0 
0 0.710299 -0.7039 0 0.710299 -0.7039 -0.575601 0.580833 -0.575601 
-0.57735 0.57735 -0.57735 -0.57735 0.57735 -0.57735 0.999959 0.00900864 0 
-0.999959 0.00909053 0 0.7039 0.710299 0 0.707107 0.707107 0 
-0.57735 0.57735 -0.57735 -0.575601 0.580833 -0.575601 0.579084 0.579084 0.573867 
0.575601 0.580833 0.575601 0.579084 0.579084 0.573867 0 1 0 
0 1 0 -0.0063702 -0.707092 -0.707092 -0.0063702 -0.707092 -0.707092 
-0.999919 -0.00900828 -0.00900828 0.00900828 -0.00900828 -0.999919 0.00900828 -0.999919 -0.00900828 
0.999919 -0.00900828 -0.00900828 -0.00900828 -0.00900828 -0.999919 -0.00900828 -0.999919 -0.00900828 
-0.57735 -0.57735 -0.57735 0 -0.707107 -0.707107 0 -0.999959 -0.00900864 
0 -0.707107 -0.707107 0 -0.999959 -0.00900864 0 -0.707107 -0.707107 
0 -0.707107 -0.707107 0 -0.707107 -0.707107 0 -0.707107 -0.707107 
0.0063702 -0.707092 -0.707092 0.0063702 -0.707092 -0.707092 0.999919 -0.00900828 -0.00900828 
-1 0 0 0.579084 -0.573867 -0.579084 0.00639896 -0.703886 -0.710285 
-0.00900828 -0.00900828 -0.999919 -0.57735 -0.57735 -0.57735 -0.0063702 -0.707092 -0.707092 
-0.7039 0 -0.710299 1 0 0 -1 0 0 
0.573867 -0.579084 -0.579084 0 -0.707107 -0.707107 0 -0.7039 -0.710299 
-0.575601 -0.575601 -0.580833 1 0 0 -1 0 0 
1 0 0 -1 0 0 1 0 0 
-1 0 0 1 0 0 -1 0 0 
1 0 0 -1 0 0 1 0 0 
-1 0 0 1 0 0 -1 0 0 
1 0 0 -1 0 0 1 0 0 
-1 0 0 1 0 0 -1 0 0 
0.707107 0.707107 0 0.7039 0.710299 0 -0.575601 0.580833 -0.575601 
-0.00639896 0.703886 -0.710285 -0.579084 0.573867 -0.579084 0 0.7039 -0.710299 
-0.575601 0.575601 -0.580833 0.999959 0.00900864 0 -0.999959 0.00909053 0 
0.7039 0.710299 0 0.707107 0.707107 0 -0.00900828 0.00900828 -0.999919 
-0.999919 0.00900828 -0.00900828 0 0.00900864 -0.999959 0 0.00900864 -0.999959 
-0.573867 0.579084 -0.579084 0.707107 0.707107 0 0.707107 0.707107 0 
0 1 0 -0.00900828 0.999919 -0.00900828 0 0.999959 -0.00900864 
0 0.999959 -0.00900864 0 0.999959 -0.00900864 0.00900864 0.999959 0 
0 -0.707107 -0.707107 0 -0.707107 -0.707107 -0.999917 -0.00909016 -0.00909016 
0.573867 -0.579084 -0.579084 -0.0063702 -0.707092 -0.707092 -0.00900828 -0.999919 -0.00900828 
-0.707092 -0.707092 -0.0063702 0 -0.707107 -0.707107 0 -0.707107 -0.707107 
0.0063702 -0.707092 -0.707092 0.0063702 -0.707092 -0.707092 0.999919 -0.00900828 -0.00900828 
-1 0 0 0.579084 -0.579084 -0.573867 0.00639896 -0.710285 -0.703886 