# vtk DataFile Version 3.0
vtk output
ASCII
DATASET POLYDATA
POINTS 1824 float
85 63 46.0089 85 62.0089 47 84.0089 63 47 
86 63 46.0089 86 62.0089 47 86.9911 63 47 
85 63.9911 47 85.0089 64 47 86 64 46.0089 
86.9911 64 47 86 65 46.0089 85.0089 65 47 
87 64.0089 47 87 65 46.0089 88 65 46.0089 
88 64.0089 47 89 65 46.0089 89 64.0089 47 
90 65 46.0089 90 64.0089 47 91 65 46.0089 
91 64.0089 47 92 65 46.0089 92 64.0089 47 
93 65 46.0089 93 64.0089 47 94 65 46.0089 
94 64.0089 47 95 65 46.0089 95 64.0089 47 
96 65 46.0089 96 64.0089 47 96.9911 65 47 
86 66 46.0089 85.0089 66 47 86.9911 66 47 
87 65.9911 47 88 65.9911 47 89 65.9911 47 
90 65.9911 47 91 65.9911 47 92 65.9911 47 
93 65.9911 47 94 65.9911 47 95 65.9911 47 
95.0089 66 47 96 66 46.0089 96.9911 66 47 
86 67 46.0089 85.0089 67 47 87 66.0089 47 
87 67 46.0089 88 67 46.0089 88 66.0089 47 
89 67 46.0089 89 66.0089 47 90 67 46.0089 
90 66.0089 47 91 67 46.0089 91 66.0089 47 
92 67 46.0089 92 66.0089 47 93 67 46.0089 
93 66.0089 47 94 67 46.0089 94 66.0089 47 
95 67 46.0089 95 66.0089 47 96 67 46.0089 
96.9911 67 47 86 67.9911 47 87 67.9911 47 
88 67.9911 47 89 67.9911 47 90 67.9911 47 
91 67.9911 47 92 67.9911 47 93 67.9911 47 
94 67.9911 47 95 67.9911 47 96 67.9911 47 
87 56 47.0089 87 55.0089 48 86.0089 56 48 
88 56 47.0089 88 55.0089 48 89 56 47.0089 
89 55.0089 48 90 56 47.0089 90 55.0089 48 
91 56 47.0089 91 55.0089 48 92 56 47.0089 
92 55.0089 48 93 56 47.0089 93 55.0089 48 
94 56 47.0089 94 55.0089 48 95 56 47.0089 
95 55.0089 48 96 56 47.0089 96 55.0089 48 
96.9911 56 48 86 57 47.0089 86 56.0089 48 
85.0089 57 48 87 57 47.0089 88 57 47.0089 
89 57 47.0089 90 57 47.0089 91 57 47.0089 
92 57 47.0089 93 57 47.0089 94 57 47.0089 
95 57 47.0089 96 57 47.0089 96.9911 57 48 
86 57.9911 48 86.0089 58 48 87 58 47.0089 
88 58 47.0089 89 58 47.0089 90 58 47.0089 
91 58 47.0089 92 58 47.0089 93 58 47.0089 
94 58 47.0089 95 58 47.0089 96 58 47.0089 
96.9911 58 48 86 59 47.0089 86 58.0089 48 
85.0089 59 48 87 59 47.0089 88 59 47.0089 
89 59 47.0089 90 59 47.0089 91 59 47.0089 
92 59 47.0089 93 59 47.0089 94 59 47.0089 
95 59 47.0089 96 59 47.0089 96.9911 59 48 
85 60 47.0089 85 59.0089 48 84.0089 60 48 
86 60 47.0089 87 60 47.0089 88 60 47.0089 
89 60 47.0089 90 60 47.0089 91 60 47.0089 
92 60 47.0089 93 60 47.0089 94 60 47.0089 
95 60 47.0089 96 60 47.0089 96.9911 60 48 
85 61 47.0089 84.0089 61 48 86 61 47.0089 
87 61 47.0089 88 61 47.0089 89 61 47.0089 
90 61 47.0089 91 61 47.0089 92 61 47.0089 
93 61 47.0089 94 61 47.0089 95 61 47.0089 
96 61 47.0089 96.9911 61 48 85 62 47.0089 
84.0089 62 48 86 62 47.0089 87 62 47.0089 
88 62 47.0089 89 62 47.0089 90 62 47.0089 
91 62 47.0089 92 62 47.0089 93 62 47.0089 
94 62 47.0089 95 62 47.0089 96 62 47.0089 
96.9911 62 48 84 63 47.0089 84 62.0089 48 
83.0089 63 48 87 63 47.0089 88 63 47.0089 
89 63 47.0089 90 63 47.0089 91 63 47.0089 
92 63 47.0089 93 63 47.0089 94 63 47.0089 
95 63 47.0089 96 63 47.0089 96.9911 63 48 
84 63.9911 48 85 64 47.0089 84.0089 64 48 
87 64 47.0089 88 64 47.0089 89 64 47.0089 
90 64 47.0089 91 64 47.0089 92 64 47.0089 
93 64 47.0089 94 64 47.0089 95 64 47.0089 
96 64 47.0089 96.9911 64 48 85 65 47.0089 
84.0089 65 48 96.9911 65 48 85 66 47.0089 
84.0089 66 48 87 66 47.0089 88 66 47.0089 
89 66 47.0089 90 66 47.0089 91 66 47.0089 
92 66 47.0089 93 66 47.0089 94 66 47.0089 
95 66 47.0089 97 65.0089 48 97 66 47.0089 
98 66 47.0089 98 65.0089 48 98.9911 66 48 
85 67 47.0089 84.0089 67 48 97 67 47.0089 
98 67 47.0089 98.9911 67 48 85 68 47.0089 
84.0089 68 48 86 68 47.0089 87 68 47.0089 
88 68 47.0089 89 68 47.0089 90 68 47.0089 
91 68 47.0089 92 68 47.0089 93 68 47.0089 
94 68 47.0089 95 68 47.0089 96 68 47.0089 
96.9911 68 48 97 67.9911 48 98 67.9911 48 
85 69 47.0089 84.0089 69 48 86 69 47.0089 
87 69 47.0089 88 69 47.0089 89 69 47.0089 
90 69 47.0089 91 69 47.0089 92 69 47.0089 
93 69 47.0089 94 69 47.0089 95 69 47.0089 
95.9911 69 48 96 68.9911 48 85 69.9911 48 
86 69.9911 48 87 69.9911 48 88 69.9911 48 
88.0089 70 48 89 70 47.0089 90 70 47.0089 
91 70 47.0089 92 70 47.0089 93 70 47.0089 
94 70 47.0089 94.9911 70 48 95 69.9911 48 
89 71 47.0089 88.0089 71 48 90 71 47.0089 
91 71 47.0089 92 71 47.0089 93 71 47.0089 
93.9911 71 48 94 70.9911 48 89 71.9911 48 
90 71.9911 48 91 71.9911 48 92 71.9911 48 
93 71.9911 48 86 55 48.0089 86 54.0089 49 
85.0089 55 49 87 55 48.0089 87 54.0089 49 
88 55 48.0089 88 54.0089 49 89 55 48.0089 
89 54.0089 49 90 55 48.0089 90 54.0089 49 
91 55 48.0089 91 54.0089 49 92 55 48.0089 
92 54.0089 49 93 55 48.0089 93 54.0089 49 
94 55 48.0089 94 54.0089 49 95 55 48.0089 
95 54.0089 49 95.9911 55 49 86 56 48.0089 
85.0089 56 49 96 55.0089 49 96.9911 56 49 
85.0089 57 49 96.9911 57 49 86 57.9911 49 
86.0089 58 49 96.9911 58 49 86 58.0089 49 
85.0089 59 49 96.9911 59 49 85 59.0089 49 
84.0089 60 49 96.9911 60 49 84.0089 61 49 
96.9911 61 49 84.0089 62 49 96.9911 62 49 
84 63 48.9911 84.0089 63 49 96.9911 63 49 
84.0089 64 49 96.9911 64 49 84 65 48.0089 
84 64.0089 49 83.0089 65 49 96.9911 65 49 
84 66 48.0089 83.0089 66 49 97 65.0089 49 
98 66 48.9911 97.9911 66 49 84 67 48.0089 
83.0089 67 49 98 67 48.9911 97.9911 67 49 
84 68 48.0089 83.0089 68 49 96.9911 68 49 
97 67.9911 49 84 68.9911 49 84.0089 69 49 
95.9911 69 49 96 68.9911 49 85 69.9911 49 
86 69.9911 49 87 69.9911 49 88 69.9911 49 
88.0089 70 49 94.9911 70 49 95 69.9911 49 
88.0089 71 49 93.9911 71 49 94 70.9911 49 
89 71.9911 49 90 71.9911 49 91 71.9911 49 
92 71.9911 49 93 71.9911 49 87 54 49.0089 
87 53.0089 50 86.0089 54 50 88 54 49.0089 
88 53.0089 50 89 54 49.0089 89 53.0089 50 
90 54 49.0089 90 53.0089 50 91 54 49.0089 
91 53.0089 50 92 54 49.0089 92 53.0089 50 
93 54 49.0089 93 53.0089 50 94 54 49.0089 
94 53.0089 50 95 54 49.0089 95 53.0089 50 
96 54 49.0089 96 53.0089 50 96.9911 54 50 
86 55 49.9911 86.0089 55 50 96 55 49.0089 
96.9911 55 50 86 56 49.9911 86.0089 56 50 
96.9911 56 50 86 57 49.9911 86.0089 57 50 
96.9911 57 50 86.0089 58 50 96.9911 58 50 
86 59 49.9911 86.0089 59 50 96.9911 59 50 
85 60 49.9911 86 60 49.9911 86.0089 60 50 
96.9911 60 50 85 61 49.9911 86 61 49.9911 
86.0089 61 50 96.9911 61 50 85 62 49.9911 
86 62 49.9911 86.0089 62 50 96.9911 62 50 
85 63 49.9911 86 63 49.9911 86.0089 63 50 
96.9911 63 50 85 64 49.9911 86 64 49.9911 
86.0089 64 50 96.9911 64 50 84 65 49.9911 
85 65 49.9911 85.0089 65 50 86 64.0089 50 
96.9911 65 50 84 66 49.9911 84.0089 66 50 
85 65.0089 50 97 66 49.9911 96.9911 66 50 
84 67 49.9911 84.0089 67 50 97 67 49.9911 
96.9911 67 50 84 68 49.9911 84.0089 68 50 
96.9911 68 50 84.0089 69 50 95.9911 69 50 
96 68.9911 50 85 69.9911 50 86 69.9911 50 
87 69.9911 50 88 69.9911 50 88.0089 70 50 
94.9911 70 50 95 69.9911 50 88.0089 71 50 
93.9911 71 50 94 70.9911 50 89 71.9911 50 
90 71.9911 50 91 71.9911 50 92 71.9911 50 
93 71.9911 50 87 53 50.0089 87 52.0089 51 
86.0089 53 51 88 53 50.0089 88 52.0089 51 
89 53 50.0089 89 52.0089 51 90 53 50.0089 
90 52.0089 51 91 53 50.0089 91 52.0089 51 
92 53 50.0089 92 52.0089 51 93 53 50.0089 
93 52.0089 51 94 53 50.0089 94 52.0089 51 
95 53 50.0089 95 52.0089 51 95.9911 53 51 
86.0089 54 51 96 53.0089 51 96.9911 54 51 
86.0089 55 51 96.9911 55 51 86.0089 56 51 
96.9911 56 51 86.0089 57 51 96.9911 57 51 
86.0089 58 51 96.9911 58 51 86.0089 59 51 
96.9911 59 51 86.0089 60 51 96.9911 60 51 
86.0089 61 51 96.9911 61 51 86.0089 62 51 
96.9911 62 51 86.0089 63 51 96.9911 63 51 
86.0089 64 51 96.9911 64 51 86 64.0089 51 
85.0089 65 51 96.9911 65 51 85 65.0089 51 
84.0089 66 51 96.9911 66 51 84.0089 67 51 
96.9911 67 51 84.0089 68 51 96 68 50.9911 
95.9911 68 51 96 67.9911 51 85 68.9911 51 
85 69 50.9911 86 68.9911 51 86 69 50.9911 
87 68.9911 51 87 69 50.9911 87.0089 69 51 
94 69 50.9911 93.9911 69 51 94 68.9911 51 
95 68.9911 51 95 69 50.9911 88 69.9911 51 
88.0089 70 51 94 70 50.9911 93.9911 70 51 
89 70.9911 51 89 71 50.9911 90 70.9911 51 
90 71 50.9911 91 70.9911 51 91 71 50.9911 
92 70.9911 51 92 71 50.9911 93 70.9911 51 
93 71 50.9911 95 44 51.0089 95 43.0089 52 
94.0089 44 52 96 44 51.0089 96 43.0089 52 
96.9911 44 52 95 45 51.0089 94.0089 45 52 
95.9911 45 52 96 44.9911 52 95 45.9911 52 
95 50 51.0089 95 49.0089 52 94.0089 50 52 
96 50 51.0089 96 49.0089 52 96.9911 50 52 
94 51 51.0089 94 50.0089 52 93.0089 51 52 
95 51 51.0089 96 51 51.0089 96.9911 51 52 
87 52 51.0089 87 51.0089 52 86.0089 52 52 
88 52 51.0089 88 51.0089 52 89 52 51.0089 
89 51.0089 52 90 52 51.0089 90 51.0089 52 
91 52 51.0089 91 51.0089 52 92 52 51.0089 
92 51.0089 52 93 52 51.0089 93 51.0089 52 
94 52 51.0089 95 52 51.0089 96 52 51.0089 
96.9911 52 52 86.0089 53 52 96 53 51.0089 
96.9911 53 52 86.0089 54 52 96.9911 54 52 
86.0089 55 52 96.9911 55 52 86.0089 56 52 
96.9911 56 52 86.0089 57 52 96.9911 57 52 
86.0089 58 52 96.9911 58 52 86.0089 59 52 
96.9911 59 52 86.0089 60 52 96.9911 60 52 
86.0089 61 52 96.9911 61 52 86.0089 62 52 
96.9911 62 52 86.0089 63 52 96.9911 63 52 
86.0089 64 52 96.9911 64 52 86 64.0089 52 
85.0089 65 52 96.9911 65 52 85 66 51.9911 
86 65.9911 52 86 66 51.9911 86.0089 66 52 
96.9911 66 52 85 67 51.9911 86 67 51.9911 
86.0089 67 52 96.9911 67 52 85 68 51.9911 
86 68 51.9911 87 67.9911 52 87 68 51.9911 
88 67.9911 52 88 68 51.9911 88.0089 68 52 
93 68 51.9911 92.9911 68 52 93 67.9911 52 
94 67.9911 52 94 68 51.9911 95 67.9911 52 
95 68 51.9911 96 67.9911 52 88 69 51.9911 
88.0089 69 52 92 69 51.9911 91.9911 69 52 
92 68.9911 52 93 69 51.9911 89 69.9911 52 
89 70 51.9911 90 69.9911 52 90 70 51.9911 
91 69.9911 52 91 70 51.9911 92 70 51.9911 
93 70 51.9911 95 43 52.0089 95 42.0089 53 
94.0089 43 53 95.9911 43 53 94.0089 44 53 
96 43.0089 53 96.9911 44 53 94 45 52.0089 
94 44.0089 53 93.0089 45 53 95.9911 45 53 
96 44.9911 53 94 45.9911 53 95 45.9911 53 
87 49 52.0089 87 48.0089 53 86.0089 49 53 
87.9911 49 53 94 49 52.0089 94 48.0089 53 
93.0089 49 53 95 49 52.0089 95 48.0089 53 
95.9911 49 53 87 49.9911 53 94 50 52.0089 
93.0089 50 53 96 49.0089 53 96.9911 50 53 
87 51 52.0089 87 50.0089 53 86.0089 51 53 
[...]
POINT_DATA 1824
SCALARS scalars float
LOOKUP_TABLE default
1 1 1 1 1 1 1 1 1 
1 1 1 1 1 1 1 1 1 
1 1 1 1 1 1 1 1 1 
1 1 1 1 1 1 1 1 1 
1 1 1 1 1 1 1 1 1 
1 1 1 1 1 1 1 1 1 
1 1 1 1 1 1 1 1 1 
1 1 1 1 1 1 1 1 1 
1 1 1 1 1 1 1 1 1 
1 1 1 1 1 1 1 1 1 
1 1 1 1 1 1 1 1 1 
1 1 1 1 1 1 1 1 1 
1 1 1 1 1 1 1 1 1 
1 1 1 1 1 1 1 1 1 
1 1 1 1 1 1 1 1 1 
1 1 1 1 1 1 1 1 1 
1 1 1 1 1 1 1 1 1 
1 1 1 1 1 1 1 1 1 
1 1 1 1 1 1 1 1 1 
1 1 1 1 1 1 1 1 1 
1 1 1 1 1 1 1 1 1 
1 1 1 1 1 1 1 1 1 
1 1 1 1 1 1 1 1 1 
1 1 1 1 1 1 1 1 1 
1 1 1 1 1 1 1 1 1 
1 1 1 1 1 1 1 1 1 
1 1 1 1 1 1 1 1 1 
1 1 1 1 1 1 1 1 1 
1 1 1 1 1 1 1 1 1 
1 1 1 1 1 1 1 1 1 
1 1 1 1 1 1 1 1 1 
1 1 1 1 1 1 1 1 1 
1 1 1 1 1 1 1 1 1 
1 1 1 1 1 1 1 1 1 
1 1 1 1 1 1 1 1 1 
1 1 1 1 1 1 1 1 1 
1 1 1 1 1 1 1 1 1 
1 1 1 1 1 1 1 1 1 
1 1 1 1 1 1 1 1 1 
1 1 1 1 1 1 1 1 1 
1 1 1 1 1 1 1 1 1 
1 1 1 1 1 1 1 1 1 
1 1 1 1 1 1 1 1 1 
1 1 1 1 1 1 1 1 1 
1 1 1 1 1 1 1 1 1 
1 1 1 1 1 1 1 1 1 
1 1 1 1 1 1 1 1 1 
1 1 1 1 1 1 1 1 1 
1 1 1 1 1 1 1 1 1 
1 1 1 1 1 1 1 1 1 
1 1 1 1 1 1 1 1 1 
1 1 1 1 1 1 1 1 1 
1 1 1 1 1 1 1 1 1 
1 1 1 1 1 1 1 1 1 
1 1 1 1 1 1 1 1 1 
1 1 1 1 1 1 1 1 1 
1 1 1 1 1 1 1 1 1 
1 1 1 1 1 1 1 1 1 
1 1 1 1 1 1 1 1 1 
1 1 1 1 1 1 1 1 1 
1 1 1 1 1 1 1 1 1 
1 1 1 1 1 1 1 1 1 
1 1 1 1 1 1 1 1 1 
1 1 1 1 1 1 1 1 1 
1 1 1 1 1 1 1 1 1 
1 1 1 1 1 1 1 1 1 
1 1 1 1 1 1 1 1 1 
1 1 1 1 1 1 1 1 1 
1 1 1 1 1 1 1 1 1 
1 1 1 1 1 1 1 1 1 
1 1 1 1 1 1 1 1 1 
1 1 1 1 1 1 1 1 1 
1 1 1 1 1 1 1 1 1 
1 1 1 1 1 1 1 1 1 
1 1 1 1 1 1 1 1 1 
1 1 1 1 1 1 1 1 1 
1 1 1 1 1 1 1 1 1 
1 1 1 1 1 1 1 1 1 
1 1 1 1 1 1 1 1 1 
1 1 1 1 1 1 1 1 1 
1 1 1 1 1 1 1 1 1 
1 1 1 1 1 1 1 1 1 
1 1 1 1 1 1 1 1 1 
1 1 1 1 1 1 1 1 1 
1 1 1 1 1 1 1 1 1 
1 1 1 1 1 1 1 1 1 
1 1 1 1 1 1 1 1 1 
1 1 1 1 1 1 1 1 1 
1 1 1 1 1 1 1 1 1 
1 1 1 1 1 1 1 1 1 
1 1 1 1 1 1 1 1 1 
1 1 1 1 1 1 1 1 1 
1 1 1 1 1 1 1 1 1 
1 1 1 1 1 1 1 1 1 
1 1 1 1 1 1 1 1 1 
1 1 1 1 1 1 1 1 1 
1 1 1 1 1 1 1 1 1 
1 1 1 1 1 1 1 1 1 
1 1 1 1 1 1 1 1 1 
1 1 1 1 1 1 1 1 1 
1 1 1 1 1 1 1 1 1 
1 1 1 1 1 1 1 1 1 
1 1 1 1 1 1 1 1 1 
1 1 1 1 1 1 1 1 1 
1 1 1 1 1 1 1 1 1 
1 1 1 1 1 1 1 1 1 
1 1 1 1 1 1 1 1 1 
1 1 1 1 1 1 1 1 1 
1 1 1 1 1 1 1 1 1 
1 1 1 1 1 1 1 1 1 
1 1 1 1 1 1 1 1 1 
1 1 1 1 1 1 1 1 1 
1 1 1 1 1 1 1 1 1 
1 1 1 1 1 1 1 1 1 
1 1 1 1 1 1 1 1 1 
1 1 1 1 1 1 1 1 1 
1 1 1 1 1 1 1 1 1 
1 1 1 1 1 1 1 1 1 
1 1 1 1 1 1 1 1 1 
1 1 1 1 1 1 1 1 1 
1 1 1 1 1 1 1 1 1 
1 1 1 1 1 1 1 1 1 
1 1 1 1 1 1 1 1 1 
1 1 1 1 1 1 1 1 1 
1 1 1 1 1 1 1 1 1 
1 1 1 1 1 1 1 1 1 
1 1 1 1 1 1 1 1 1 
1 1 1 1 1 1 1 1 1 
1 1 1 1 1 1 1 1 1 
1 1 1 1 1 1 1 1 1 
1 1 1 1 1 1 1 1 1 
1 1 1 1 1 1 1 1 1 
1 1 1 1 1 1 1 1 1 
1 1 1 1 1 1 1 1 1 
1 1 1 1 1 1 1 1 1 
1 1 1 1 1 1 1 1 1 
1 1 1 1 1 1 1 1 1 
1 1 1 1 1 1 1 1 1 
1 1 1 1 1 1 1 1 1 
1 1 1 1 1 1 1 1 1 
1 1 1 1 1 1 1 1 1 
1 1 1 1 1 1 1 1 1 
1 1 1 1 1 1 1 1 1 
1 1 1 1 1 1 1 1 1 
1 1 1 1 1 1 1 1 1 
1 1 1 1 1 1 1 1 1 
1 1 1 1 1 1 1 1 1 
1 1 1 1 1 1 1 1 1 
1 1 1 1 1 1 1 1 1 
1 1 1 1 1 1 1 1 1 
1 1 1 1 1 1 1 1 1 
1 1 1 1 1 1 1 1 1 
1 1 1 1 1 1 1 1 1 
1 1 1 1 1 1 1 1 1 
1 1 1 1 1 1 1 1 1 
1 1 1 1 1 1 1 1 1 
1 1 1 1 1 1 1 1 1 
1 1 1 1 1 1 1 1 1 
1 1 1 1 1 1 1 1 1 
1 1 1 1 1 1 1 1 1 
1 1 1 1 1 1 1 1 1 
1 1 1 1 1 1 1 1 1 
1 1 1 1 1 1 1 1 1 
1 1 1 1 1 1 1 1 1 
1 1 1 1 1 1 1 1 1 
1 1 1 1 1 1 1 1 1 
1 1 1 1 1 1 1 1 1 
1 1 1 1 1 1 1 1 1 
1 1 1 1 1 1 1 1 1 
1 1 1 1 1 1 1 1 1 
1 1 1 1 1 1 1 1 1 
1 1 1 1 1 1 1 1 1 
1 1 1 1 1 1 1 1 1 
1 1 1 1 1 1 1 1 1 
1 1 1 1 1 1 1 1 1 
1 1 1 1 1 1 1 1 1 
1 1 1 1 1 1 1 1 1 
1 1 1 1 1 1 1 1 1 
1 1 1 1 1 1 1 1 1 
1 1 1 1 1 1 1 1 1 
1 1 1 1 1 1 1 1 1 
1 1 1 1 1 1 1 1 1 
1 1 1 1 1 1 1 1 1 
1 1 1 1 1 1 1 1 1 
1 1 1 1 1 1 1 1 1 
1 1 1 1 1 1 1 1 1 
1 1 1 1 1 1 1 1 1 
1 1 1 1 1 1 1 1 1 
1 1 1 1 1 1 1 1 1 
1 1 1 1 1 1 1 1 1 
1 1 1 1 1 1 1 1 1 
1 1 1 1 1 1 1 1 1 
1 1 1 1 1 1 1 1 1 
1 1 1 1 1 1 1 1 1 
1 1 1 1 1 1 1 1 1 
1 1 1 1 1 1 1 1 1 
1 1 1 1 1 1 1 1 1 
1 1 1 1 1 1 1 1 1 
1 1 1 1 1 1 1 1 1 
1 1 1 1 1 1 1 1 1 
1 1 1 1 1 1 1 1 1 
1 1 1 1 1 1 1 1 1 
1 1 1 1 1 1 
NORMALS normals float
-0.00892822 0 -0.99996 -0.00634157 -0.703915 -0.710256 -0.707107 0 -0.707107 
0.00892786 -0.00892786 -0.99992 0.00631333 -0.707093 -0.707093 0.707093 -0.00631333 -0.707093 
-0.579069 0.573898 -0.579069 -0.575617 0.575617 -0.580802 0 0 -1 
0.575617 -0.575617 -0.580802 -0.00892822 0 -0.99996 -0.707107 0 -0.707107 
0.575617 -0.575617 -0.580802 0 0 -1 0 0 -1 
0 -0.703929 -0.710271 0 0 -1 0 -0.703929 -0.710271 
0 0 -1 0 -0.703929 -0.710271 0 0 -1 
0 -0.703929 -0.710271 0 0 -1 0 -0.703929 -0.710271 
0 0 -1 0 -0.703929 -0.710271 0 0 -1 
0 -0.703929 -0.710271 0 0 -1 0 -0.703929 -0.710271 
0.00892786 -0.00892786 -0.99992 0.00631333 -0.707093 -0.707093 0.99992 -0.00892786 -0.00892786 
0 0 -1 -0.703929 0 -0.710271 0.703929 0 -0.710271 
0.703929 0 -0.710271 0 0 -1 0 0 -1 
0 0 -1 0 0 -1 0 0 -1 
0 0 -1 0 0 -1 -0.703929 0 -0.710271 
-0.703929 0 -0.710271 0 0 -1 0.703929 0 -0.710271 
-0.00892786 0.00892786 -0.99992 -0.707093 0.00631333 -0.707093 0.703929 0 -0.710271 
0 0 -1 0 0 -1 0 0 -1 
0 0 -1 0 0 -1 0 0 -1 
0 0 -1 0 0 -1 0 0 -1 
0 0 -1 0 0 -1 0 0 -1 
0 0 -1 0 0 -1 0 0 -1 
0 0 -1 -0.703929 0 -0.710271 0.00892786 0.00892786 -0.99992 
0.707093 0.00631333 -0.707093 -0.00631333 0.707093 -0.707093 0 0.703929 -0.710271 
0 0.703929 -0.710271 0 0.703929 -0.710271 0 0.703929 -0.710271 
0 0.703929 -0.710271 0 0.703929 -0.710271 0 0.703929 -0.710271 
0 0.703929 -0.710271 0 0.703929 -0.710271 0.00631333 0.707093 -0.707093 
-0.00892786 -0.00892786 -0.99992 -0.00631333 -0.707093 -0.707093 -0.57735 -0.57735 -0.57735 
0 -0.00892822 -0.99996 0 -0.707107 -0.707107 0 -0.00892822 -0.99996 
0 -0.707107 -0.707107 0 -0.00892822 -0.99996 0 -0.707107 -0.707107 
0 -0.00892822 -0.99996 0 -0.707107 -0.707107 0 -0.00892822 -0.99996 
0 -0.707107 -0.707107 0 -0.00892822 -0.99996 0 -0.707107 -0.707107 
0 -0.00892822 -0.99996 0 -0.707107 -0.707107 0 -0.00892822 -0.99996 
0 -0.707107 -0.707107 0.00892786 -0.00892786 -0.99992 0.00892786 -0.99992 -0.00892786 
0.99992 -0.00892786 -0.00892786 -0.00892822 0 -0.99996 -0.579069 -0.573898 -0.579069 
-0.99996 0 -0.00892822 0 0 -1 0 0 -1 
0 0 -1 0 0 -1 0 0 -1 
0 0 -1 0 0 -1 0 0 -1 
0 0 -1 0.00892822 0 -0.99996 0.99996 0 -0.00892822 
-0.99996 0 -0.00892822 -0.99996 0 -0.00892822 -0.00892822 0 -0.99996 
0 0 -1 0 0 -1 0 0 -1 
0 0 -1 0 0 -1 0 0 -1 
0 0 -1 0 0 -1 0.00892822 0 -0.99996 
0.99996 0 -0.00892822 -0.00892786 -0.00892786 -0.99992 -0.99992 -0.00892786 -0.00892786 
-0.707093 -0.707093 -0.00631333 0 0 -1 0 0 -1 
0 0 -1 0 0 -1 0 0 -1 
0 0 -1 0 0 -1 0 0 -1 
0 0 -1 0.00892822 0 -0.99996 0.99996 0 -0.00892822 
-0.00892786 -0.00892786 -0.99992 -0.707093 -0.707093 -0.00631333 -0.99992 -0.00892786 -0.00892786 
0 0 -1 0 0 -1 0 0 -1 
0 0 -1 0 0 -1 0 0 -1 
0 0 -1 0 0 -1 0 0 -1 
0 0 -1 0.00892822 0 -0.99996 0.99996 0 -0.00892822 
-0.00892822 0 -0.99996 -0.99996 0 -0.00892822 0 0 -1 
0 0 -1 0 0 -1 0 0 -1 
0 0 -1 0 0 -1 0 0 -1 
0 0 -1 0 0 -1 0 0 -1 
0.00892822 0 -0.99996 0.99996 0 -0.00892822 -0.00634157 -0.703915 -0.710256 
-0.710256 -0.703915 -0.00634157 0 -0.703929 -0.710271 0 0 -1 
0 0 -1 0 0 -1 0 0 -1 
0 0 -1 0 0 -1 0 0 -1 
0 0 -1 0 0 -1 0.00892822 0 -0.99996 
0.99996 0 -0.00892822 -0.710271 0 -0.703929 -0.710271 -0.703929 0 
-1 0 0 0.703929 0 -0.710271 0 0 -1 
0 0 -1 0 0 -1 0 0 -1 
0 0 -1 0 0 -1 0 0 -1 
0 0 -1 0.00892822 0 -0.99996 0.99996 0 -0.00892822 
-0.710271 0.703929 0 -0.579069 0.573898 -0.579069 -0.710256 0.703915 -0.00634157 
0.575617 -0.575617 -0.580802 0 -0.703929 -0.710271 0 -0.703929 -0.710271 
0 -0.703929 -0.710271 0 -0.703929 -0.710271 0 -0.703929 -0.710271 
0 -0.703929 -0.710271 0 -0.703929 -0.710271 0 -0.703929 -0.710271 
0.00634157 -0.703915 -0.710256 0.99996 0 -0.00892822 -0.707107 0 -0.707107 
-0.707107 0 -0.707107 0.710271 -0.703929 0 -0.707107 0 -0.707107 
-0.707107 0 -0.707107 0.703929 0 -0.710271 0 0 -1 
0 0 -1 0 0 -1 0 0 -1 
0 0 -1 0 0 -1 0 0 -1 
-0.703929 0 -0.710271 0.703915 -0.710256 -0.00634157 0.703915 -0.00634157 -0.710256 
0.00900828 -0.00900828 -0.999919 0.00892822 -0.99996 0 0.99996 -0.00892822 0 
-0.707107 0 -0.707107 -0.707107 0 -0.707107 0.703915 0.00634157 -0.710256 
0.00900828 0.00900828 -0.999919 0.99996 0.00892822 0 -0.00892822 0 -0.99996 
-0.707107 0 -0.707107 0 0.703929 -0.710271 0 0.703929 -0.710271 
0 0.703929 -0.710271 0 0.703929 -0.710271 0 0.703929 -0.710271 
0 0.703929 -0.710271 0 0.703929 -0.710271 0 0.703929 -0.710271 
0 0.703929 -0.710271 0 0.703929 -0.710271 0.00631333 0.707093 -0.707093 
0.707093 0.707093 -0.00631333 0.703915 0.710256 -0.00634157 0.00892822 0.99996 0 
-0.00892786 0.00892786 -0.99992 -0.99992 0.00892786 -0.00892786 0 0.00892822 -0.99996 
0 0.00892822 -0.99996 0 0.00892822 -0.99996 0 0 -1 
0 0 -1 0 0 -1 0 0 -1 
0 0 -1 0 0 -1 0.00892786 0.00892786 -0.99992 
0.707093 0.707093 -0.00631333 0.707093 0.707093 -0.00631333 -0.00892786 0.99992 -0.00892786 
0 0.99996 -0.00892822 0 0.99996 -0.00892822 -0.703915 0.710256 -0.00634157 
-0.710256 0.703915 -0.00634157 -0.00892822 0 -0.99996 0 0 -1 
0 0 -1 0 0 -1 0 0 -1 
0.00892786 0.00892786 -0.99992 0.707093 0.707093 -0.00631333 0.707093 0.707093 -0.00631333 
-0.00892786 0.00892786 -0.99992 -0.99992 0.00892786 -0.00892786 0 0.00892822 -0.99996 
0 0.00892822 -0.99996 0 0.00892822 -0.99996 0.00892786 0.00892786 -0.99992 
0.707093 0.707093 -0.00631333 0.707093 0.707093 -0.00631333 -0.00892786 0.99992 -0.00892786 
0 0.99996 -0.00892822 0 0.99996 -0.00892822 0 0.99996 -0.00892822 
0.00892786 0.99992 -0.00892786 -0.00900828 -0.00900828 -0.999919 -0.00892822 -0.99996 0 
-0.99996 -0.00892822 0 0 -0.707107 -0.707107 0 -0.707107 -0.707107 
0 -0.707107 -0.707107 0 -0.707107 -0.707107 0 -0.707107 -0.707107 
0 -0.707107 -0.707107 0 -0.707107 -0.707107 0 -0.707107 -0.707107 
0 -0.707107 -0.707107 0 -0.707107 -0.707107 0 -0.707107 -0.707107 
0 -0.707107 -0.707107 0 -0.707107 -0.707107 0 -0.707107 -0.707107 
0 -0.707107 -0.707107 0 -0.707107 -0.707107 0.00631333 -0.707093 -0.707093 
0.00631333 -0.707093 -0.707093 0.57735 -0.57735 -0.57735 -0.580802 -0.575617 -0.575617 
-1 0 0 0.579069 -0.579069 -0.573898 0.99996 -0.00892822 0 
-0.99992 0.00892786 0.00892786 1 0 0 -0.99992 0.00892786 0.00892786 
-1 0 0 1 0 0 -0.99992 -0.00892786 0.00892786 
-0.707093 -0.707093 0.00631333 1 0 0 -0.707093 -0.707093 0.00631333 
-0.99992 -0.00892786 0.00892786 1 0 0 -0.99996 0 0.00892822 
1 0 0 -0.99996 0 0.00892822 1 0 0 
-0.710271 0 0.703929 -0.707107 0 0.707107 1 0 0 
-0.710256 -0.703915 0.00634157 1 0 0 -0.710256 -0.00634157 -0.703915 
-0.707107 -0.707107 0 -0.99996 -0.00892822 0 0.710271 -0.703929 0 
-0.710271 0 -0.703929 -1 0 0 0.707093 -0.707093 0.00631333 
0.710256 -0.00634157 0.703915 0.707093 -0.00631333 0.707093 -0.710271 0 -0.703929 
-1 0 0 0.710256 0.00634157 0.703915 0.707093 0.00631333 0.707093 
-0.710256 0.00634157 -0.703915 -0.99996 0.00892822 0 0.707107 0.707107 0 
0.707093 0.707093 0.00631333 -0.707107 0.707107 0 -0.707107 0.707107 0 
0.707107 0.707107 0 0.707107 0.707107 0 -0.00892822 0.99996 0 
0 1 0 0 1 0 -0.703929 0.710271 0 
-0.710271 0.703929 0 0.707107 0.707107 0 0.707107 0.707107 0 
-0.99996 0.00892822 0 0.707107 0.707107 0 0.707107 0.707107 0 
-0.00892822 0.99996 0 0 1 0 0 1 0 
0 1 0 0.00892822 0.99996 0 -0.00631333 -0.707093 -0.707093 
-0.00631333 -0.707093 -0.707093 -0.99992 -0.00892786 -0.00892786 0 -0.707107 -0.707107 
0 -0.707107 -0.707107 0 -0.707107 -0.707107 0 -0.707107 -0.707107 
0 -0.707107 -0.707107 0 -0.707107 -0.707107 0 -0.707107 -0.707107 
0 -0.707107 -0.707107 0 -0.707107 -0.707107 0 -0.707107 -0.707107 
0 -0.707107 -0.707107 0 -0.707107 -0.707107 0 -0.707107 -0.707107 
0 -0.707107 -0.707107 0 -0.707107 -0.707107 0 -0.707107 -0.707107 
0.00892786 -0.00892786 -0.99992 0.00892786 -0.99992 -0.00892786 0.99992 -0.00892786 -0.00892786 
-0.710256 -0.00634157 0.703915 -0.710271 0 0.703929 0.579069 -0.573898 -0.579069 
0.99996 0 -0.00892822 -0.710271 0 0.703929 -0.710271 0 0.703929 
1 0 0 -0.707093 0.00631333 0.707093 -0.710271 0 0.703929 
1 0 0 -1 0 0 1 0 0 
-0.707093 -0.00631333 0.707093 -0.710271 0 0.703929 1 0 0 
-0.00892786 -0.00892786 0.99992 -0.703929 0 0.710271 -0.710271 0 0.703929 
1 0 0 -0.00892822 0 0.99996 -0.703929 0 0.710271 
-0.710271 0 0.703929 1 0 0 -0.00892822 0 0.99996 
-0.703929 0 0.710271 -0.710271 0 0.703929 1 0 0 
-0.00892822 0 0.99996 -0.703929 0 0.710271 -0.710271 0 0.703929 
1 0 0 -0.00892822 0 0.99996 -0.575617 -0.575617 0.580802 
-0.580802 -0.575617 0.575617 1 0 0 -0.00900828 -0.00900828 0.999919 
-0.575617 -0.575617 0.580802 -0.579069 -0.579069 0.573898 -0.579069 -0.579069 0.573898 
1 0 0 -0.710271 0 0.703929 -0.710256 -0.00634157 0.703915 
-0.579069 -0.579069 0.573898 0.707093 -0.00631333 0.707093 0.710271 0 0.703929 
-0.710271 0 0.703929 -0.710271 0 0.703929 0.707093 0.00631333 0.707093 
0.710271 0 0.703929 -0.710256 0.00634157 0.703915 -0.710271 0 0.703929 
0.99992 0.00892786 0.00892786 -0.99992 0.00892786 0.00892786 0.707093 0.707093 0.00631333 
0.707093 0.707093 0.00631333 -0.00892786 0.99992 0.00892786 0 0.99996 0.00892822 
0 0.99996 0.00892822 -0.703929 0.710271 0 -0.710271 0.703929 0 
0.707093 0.707093 0.00631333 0.707093 0.707093 0.00631333 -0.99992 0.00892786 0.00892786 
0.707093 0.707093 0.00631333 0.707093 0.707093 0.00631333 -0.00892786 0.99992 0.00892786 
0 0.99996 0.00892822 0 0.99996 0.00892822 0 0.99996 0.00892822 
0.00892786 0.99992 0.00892786 -0.00631333 -0.707093 -0.707093 -0.00631333 -0.707093 -0.707093 
-0.99992 -0.00892786 -0.00892786 0 -0.707107 -0.707107 0 -0.707107 -0.707107 
0 -0.707107 -0.707107 0 -0.707107 -0.707107 0 -0.707107 -0.707107 
0 -0.707107 -0.707107 0 -0.707107 -0.707107 0 -0.707107 -0.707107 
0 -0.707107 -0.707107 0 -0.707107 -0.707107 0 -0.707107 -0.707107 
0 -0.707107 -0.707107 0 -0.707107 -0.707107 0 -0.707107 -0.707107 
0.00631333 -0.707093 -0.707093 0.00631333 -0.707093 -0.707093 0.57735 -0.57735 -0.57735 
-1 0 0 0.579069 -0.579069 -0.573898 0.99996 -0.00892822 0 
-1 0 0 1 0 0 -1 0 0 
1 0 0 -1 0 0 1 0 0 
-1 0 0 1 0 0 -1 0 0 
1 0 0 -1 0 0 1 0 0 
-1 0 0 1 0 0 -1 0 0 
1 0 0 -1 0 0 1 0 0 
-0.710271 -0.703929 0 1 0 0 -0.707107 -0.707107 0 
-0.707107 -0.707107 0 1 0 0 -0.707093 -0.707093 0.00631333 
-0.99992 -0.00892786 0.00892786 1 0 0 -0.99996 0 0.00892822 
0.99996 0.00892822 0 -0.99992 0.00892786 0.00892786 0.57735 0.57735 0.57735 
0.57735 0.57735 0.57735 0.579069 0.579069 0.573898 -0.00631333 0.707093 0.707093 
-0.00631333 0.707093 0.707093 0 0.707107 0.707107 0 0.707107 0.707107 
-0.573898 0.579069 0.579069 -0.573898 0.579069 0.579069 -0.57735 0.57735 0.57735 
0.575617 0.575617 0.580802 0.579069 0.573898 0.579069 0.573898 0.579069 0.579069 
0.00631333 0.707093 0.707093 0.00631333 0.707093 0.707093 -0.707093 0.707093 0.00631333 
-0.707093 0.707093 0.00631333 0.707093 0.00631333 0.707093 0.707093 0.00631333 0.707093 
-0.00631333 0.707093 0.707093 -0.00631333 0.707093 0.707093 0 0.707107 0.707107 
0 0.707107 0.707107 0 0.707107 0.707107 0 0.707107 0.707107 
0 0.707107 0.707107 0 0.707107 0.707107 0.00631333 0.707093 0.707093 
0.00631333 0.707093 0.707093 -0.00892786 -0.00892786 -0.99992 -0.00631333 -0.707093 -0.707093 
-0.99992 -0.00892786 -0.00892786 0.00892822 0 -0.99996 0.00900828 -0.999919 -0.00900828 
0.99996 0 -0.00892822 0 0.00892822 -0.99996 -0.703915 0.00634157 -0.710256 
0.703915 0.710256 -0.00634157 0.710256 0.703915 -0.00634157 0 0.99996 -0.00892822 
-0.00892786 -0.00892786 -0.99992 -0.00631333 -0.707093 -0.707093 -0.57735 -0.57735 -0.57735 
0.00892786 -0.00892786 -0.99992 0.00892786 -0.99992 -0.00892786 0.99992 -0.00892786 -0.00892786 
-0.00892786 -0.00892786 -0.99992 -0.57735 -0.57735 -0.57735 -0.57735 -0.57735 -0.57735 
0 0 -1 0.00892822 0 -0.99996 0.99996 0 -0.00892822 
-0.00631333 -0.707093 -0.707093 -0.00631333 -0.707093 -0.707093 -0.99992 -0.00892786 -0.00892786 
0 -0.707107 -0.707107 0 -0.707107 -0.707107 0 -0.707107 -0.707107 
0 -0.707107 -0.707107 0 -0.707107 -0.707107 0 -0.707107 -0.707107 
0 -0.707107 -0.707107 0 -0.707107 -0.707107 0 -0.707107 -0.707107 
0 -0.707107 -0.707107 0 -0.707107 -0.707107 -0.573898 -0.579069 -0.579069 
0 -0.703929 -0.710271 0 -0.703929 -0.710271 0.00892822 0 -0.99996 
0.99996 0 -0.00892822 -1 0 0 0.579069 -0.573898 -0.579069 
0.99996 0 -0.00892822 -1 0 0 1 0 0 
-1 0 0 1 0 0 -1 0 0 
1 0 0 -1 0 0 1 0 0 
-1 0 0 1 0 0 -1 0 0 
1 0 0 -1 0 0 1 0 0 
-1 0 0 1 0 0 -1 0 0 
1 0 0 -0.710271 0 -0.703929 1 0 0 
-0.580802 -0.575617 -0.575617 1 0 0 -0.582536 -0.577335 -0.572133 
-0.99996 0 0.00892822 1 0 0 -0.00892786 -0.00892786 0.99992 
-0.579069 0.573898 0.579069 -0.575617 0.575617 0.580802 -0.580802 0.575617 0.575617 
1 0 0 -0.00892822 0 0.99996 -0.703929 0 0.710271 
-0.707093 0.00631333 0.707093 0.99992 0.00892786 0.00892786 -0.00892786 0.00892786 0.99992 
0 0.00892822 0.99996 -0.00631333 0.707093 0.707093 0 0.707107 0.707107 
-0.575617 0.580802 0.575617 -0.575617 0.575617 0.580802 -0.580802 0.575617 0.575617 
0.575617 0.575617 0.580802 0.57735 0.57735 0.57735 0.573898 0.579069 0.579069 
0 0.707107 0.707107 0 0.707107 0.707107 0 0.707107 0.707107 
0.00631333 0.707093 0.707093 0.00892786 0.99992 0.00892786 -0.707093 0.00631333 0.707093 
-0.707093 0.00631333 0.707093 0.575617 0.575617 0.580802 0.57735 0.57735 0.57735 
0.57735 0.57735 0.57735 0.00892822 0 0.99996 -0.00631333 0.707093 0.707093 
-0.00631333 0.707093 0.707093 0 0.707107 0.707107 0 0.707107 0.707107 
0.00631333 0.707093 0.707093 0 0.707107 0.707107 0 0.00892822 0.99996 
0.00892786 0.00892786 0.99992 0 -0.710271 -0.703929 0 -1 0 
-0.999959 -0.00900864 0 0.703929 -0.710271 0 -0.710271 -0.703929 0 
0.710271 -0.703929 0 1 0 0 -0.707107 0 -0.707107 
-0.710256 -0.703915 -0.00634157 -0.99996 0 -0.00892822 0.579069 0.579069 -0.573898 
0.580802 0.575617 -0.575617 -0.00634157 0.703915 -0.710256 0.00634157 0.710256 -0.703915 
0 0 -1 0 -0.703929 -0.710271 -0.999959 0 -0.00900864 
0.703929 0 -0.710271 -0.00892786 -0.00892786 -0.99992 -0.00631333 -0.707093 -0.707093 
-0.707093 -0.00631333 -0.707093 0.00631333 -0.707093 -0.707093 0.00631333 -0.707093 -0.707093 
0.57735 -0.57735 -0.57735 0 0 -1 -0.579069 -0.573898 -0.579069 
-0.579069 -0.573898 -0.579069 0.579069 -0.579069 -0.573898 0.99996 -0.00892822 0 
-0.00631333 -0.707093 -0.707093 -0.00892786 -0.00892786 -0.99992 -0.99992 -0.00892786 -0.00892786 
0 -0.707107 -0.707107 0 -0.707107 -0.707107 0 -0.707107 -0.707107 
0 -0.707107 -0.707107 0 -0.707107 -0.707107 0 -0.707107 -0.707107 
0 -0.707107 -0.707107 0 -0.707107 -0.707107 0 -0.707107 -0.707107 
0 -0.707107 -0.707107 -0.573898 -0.579069 -0.579069 -0.573898 -0.579069 -0.579069 
1 0 0 -1 0 0 1 0 0 
-1 0 0 1 0 0 -1 0 0 
1 0 0 -1 0 0 1 0 0 
-1 0 0 1 0 0 -1 0 0 
1 0 0 -1 0 0 1 0 0 
-1 0 0 1 0 0 -1 0 0 
1 0 0 -1 0 0 1 0 0 
-0.710271 -0.703929 0 1 0 0 -0.707093 -0.00631333 -0.707093 
-0.707093 -0.707093 -0.00631333 -0.99992 -0.00892786 -0.00892786 1 0 0 
-0.582536 -0.572133 -0.577335 -0.99996 0.00892822 0 1 0 0 
-0.579069 0.573898 0.579069 -0.579069 0.579069 0.573898 -0.580802 0.575617 0.575617 
1 0 0 -0.99992 0.00892786 0.00892786 0.99992 0.00892786 0.00892786 
-0.57735 0.57735 0.57735 -0.57735 0.57735 0.57735 -0.57735 0.57735 0.57735 
0.575617 0.575617 0.580802 0.579069 0.573898 0.579069 0.573898 0.579069 0.579069 
0 0.707107 0.707107 0 0.707107 0.707107 0 0.707107 0.707107 
0 0.707107 0.707107 0 0.707107 0.707107 0 0.707107 0.707107 
0.00631333 0.707093 0.707093 0.00631333 0.707093 0.707093 -0.707093 0.707093 0.00631333 
-0.707093 0.707093 0.00631333 0.707093 0.00631333 0.707093 0.707093 0.00631333 0.707093 
-0.00631333 0.707093 0.707093 -0.00631333 0.707093 0.707093 0 0.707107 0.707107 
0 0.707107 0.707107 0.00631333 0.707093 0.707093 0.00631333 0.707093 0.707093 
0 -0.710271 0.703929 -0.00634157 -0.710256 0.703915 -0.707107 -0.707107 0 
0.00892822 -0.99996 0 0.99996 -0.00892822 0 -0.707107 -0.707107 0 
-0.707107 -0.707107 0 0.579069 0.573898 -0.579069 0.99996 0 -0.00892822 
-0.00892786 -0.00892786 -0.99992 -0.707093 -0.707093 -0.00631333 -0.707093 -0.00631333 -0.707093 
0 0.703929 -0.710271 0 0.703929 -0.710271 0.00892822 0 -0.99996 
0.99996 0 -0.00892822 -0.00892822 0 -0.99996 -0.707107 0 -0.707107 
0 0 -1 0 0 -1 0.00892822 0 -0.99996 